 vasp.5.3.5 31Mar14 (build Apr 25 2014 16:28:52) complex                        
  
 executed on             LinuxIFC date 2019.02.08  10:55:01
 running on   12 total cores
 distrk:  each k-point on   12 cores,    1 groups
 distr:  one band on NCORES_PER_BAND=   6 cores,    2 groups


--------------------------------------------------------------------------------------------------------


 INCAR:
 POTCAR:    PAW_PBE Ni 02Aug2007                  
 POTCAR:    PAW_PBE Ni 02Aug2007                  
  local pseudopotential read in
  partial core-charges read in
  partial kinetic energy density read in
  atomic valenz-charges read in
  non local Contribution for L=           2  read in
    real space projection operators read in
  non local Contribution for L=           2  read in
    real space projection operators read in
  non local Contribution for L=           0  read in
    real space projection operators read in
  non local Contribution for L=           0  read in
    real space projection operators read in
  non local Contribution for L=           1  read in
    real space projection operators read in
  non local Contribution for L=           1  read in
    real space projection operators read in
    PAW grid and wavefunctions read in
 
   number of l-projection  operators is LMAX  =           6
   number of lm-projection operators is LMMAX =          18
 

 ----------------------------------------------------------------------------- 
|                                                                             |
|  ADVICE TO THIS USER RUNNING 'VASP/VAMP'   (HEAR YOUR MASTER'S VOICE ...):  |
|                                                                             |
|      You have a (more or less) 'small supercell' and for smaller cells      |
|      it is recommended  to use the reciprocal-space projection scheme!      |
|      The real space optimization is not  efficient for small cells and it   |
|      is also less accurate ...                                              |
|      Therefore set LREAL=.FALSE. in the  INCAR file                         |
|                                                                             |
 ----------------------------------------------------------------------------- 

 Optimization of the real space projectors (new method)

 maximal supplied QI-value         = 16.25
 optimisation between [QCUT,QGAM] = [ 13.49, 26.98] = [ 50.95,203.80] Ry 
 Optimized for a Real-space Cutoff    1.32 Angstroem

   l    n(q)    QCUT    max X(q) W(low)/X(q) W(high)/X(q)  e(spline) 
   2     10    13.489    60.317    0.17E-03    0.27E-03    0.16E-06
   2     10    13.489    55.921    0.17E-03    0.27E-03    0.16E-06
   0     11    13.489    51.690    0.11E-03    0.12E-04    0.77E-06
   0     11    13.489    30.015    0.97E-04    0.11E-04    0.70E-06
   1     10    13.489    18.849    0.11E-03    0.15E-03    0.23E-06
   1     10    13.489    14.624    0.88E-04    0.13E-03    0.19E-06
  PAW_PBE Ni 02Aug2007                  :
 energy of atom  1       EATOM=-1077.6739
 kinetic energy error for atom=    0.0007 (will be added to EATOM!!)
 
 
 POSCAR: Ni                                      
  positions in direct lattice
  velocities in cartesian coordinates
 exchange correlation table for  LEXCH =        8
   RHO(1)=    0.500       N(1)  =     2000
   RHO(2)=  100.500       N(2)  =     4000
 


--------------------------------------------------------------------------------------------------------


 ion  position               nearest neighbor table
   1  0.000  0.000  0.000-   2 2.48   3 2.48   4 2.48   4 2.48   2 2.48   3 2.48   3 2.48   4 2.48
                             2 2.48   3 2.48   2 2.48   4 2.48
   2  0.000  0.500  0.500-   1 2.48   3 2.48   4 2.48   4 2.48   3 2.48   1 2.48   4 2.48   1 2.48
                             3 2.48   3 2.48   4 2.48   1 2.48
   3  0.500  0.000  0.500-   1 2.48   2 2.48   4 2.48   4 2.48   2 2.48   1 2.48   4 2.48   1 2.48
                             2 2.48   4 2.48   2 2.48   1 2.48
   4  0.500  0.500  0.000-   1 2.48   2 2.48   3 2.48   3 2.48   2 2.48   1 2.48   3 2.48   1 2.48
                             2 2.48   3 2.48   2 2.48   1 2.48
 
  LATTYP: Found a simple cubic cell.
 ALAT       =     3.5004471029
  
  Lattice vectors:
  
 A1 = (   3.5004471029,   0.0000000000,   0.0000000000)
 A2 = (   0.0000000000,   3.5004471029,   0.0000000000)
 A3 = (   0.0000000000,   0.0000000000,   3.5004471029)


Analysis of symmetry for initial positions (statically):
=====================================================================
 Subroutine PRICEL returns following result:
 
  LATTYP: Found a face centered cubic cell.
 ALAT       =     3.5004471029
  
  Lattice vectors:
  
 A1 = (   1.7502235514,   1.7502235514,   0.0000000000)
 A2 = (   1.7502235514,   0.0000000000,  -1.7502235514)
 A3 = (   0.0000000000,   1.7502235514,  -1.7502235514)
 
   4 primitive cells build up your supercell.
 

 Routine SETGRP: Setting up the symmetry group for a 
 simple cubic supercell.


 Subroutine GETGRP returns: Found 48 space group operations
 (whereof 48 operations were pure point group operations)
 out of a pool of 48 trial point group operations.


The static configuration has the point symmetry O_h .


Analysis of symmetry for dynamics (positions and initial velocities):
=====================================================================
 Subroutine PRICEL returns following result:
 
  LATTYP: Found a face centered cubic cell.
 ALAT       =     3.5004471029
  
  Lattice vectors:
  
 A1 = (   1.7502235514,   1.7502235514,   0.0000000000)
 A2 = (   1.7502235514,   0.0000000000,  -1.7502235514)
 A3 = (   0.0000000000,   1.7502235514,  -1.7502235514)
 
   4 primitive cells build up your supercell.
 

 Routine SETGRP: Setting up the symmetry group for a 
 simple cubic supercell.


 Subroutine GETGRP returns: Found 48 space group operations
 (whereof 48 operations were pure point group operations)
 out of a pool of 48 trial point group operations.


The dynamic configuration has the point symmetry O_h .


Analysis of magnetic symmetry:
=====================================================================
 Subroutine PRICEL returns following result:
 
  LATTYP: Found a face centered cubic cell.
 ALAT       =     3.5004471029
  
  Lattice vectors:
  
 A1 = (   1.7502235514,   1.7502235514,   0.0000000000)
 A2 = (   1.7502235514,   0.0000000000,  -1.7502235514)
 A3 = (   0.0000000000,   1.7502235514,  -1.7502235514)
 
   4 primitive cells build up your supercell.
 

 Subroutine MAGSYM returns: Found 48 space group operations
 (whereof 48 operations were pure point group operations)
 out of a pool of 48 trial space group operations
 (whereof 48 operations were pure point group operations)
 and found also     4 'primitive' translations


The magnetic configuration has the point symmetry O_h .
 
 
 KPOINTS: K-POINTS                                

Automatic generation of k-mesh.
Space group operators:
 irot       det(A)        alpha          n_x          n_y          n_z        tau_x        tau_y        tau_z
    1     1.000000     0.000000     1.000000     0.000000     0.000000     0.000000     0.000000     0.000000
    2    -1.000000     0.000000     1.000000     0.000000     0.000000     0.000000     0.000000     0.000000
    3     1.000000   120.000000    -0.577350    -0.577350    -0.577350     0.000000     0.000000     0.000000
    4    -1.000000   120.000000    -0.577350    -0.577350    -0.577350     0.000000     0.000000     0.000000
    5     1.000000   120.000000     0.577350     0.577350     0.577350     0.000000     0.000000     0.000000
    6    -1.000000   120.000000     0.577350     0.577350     0.577350     0.000000     0.000000     0.000000
    7     1.000000    90.000000     0.000000     0.000000    -1.000000     0.000000     0.000000     0.000000
    8    -1.000000    90.000000     0.000000     0.000000    -1.000000     0.000000     0.000000     0.000000
    9     1.000000   180.000000     0.000000     0.707107     0.707107     0.000000     0.000000     0.000000
   10    -1.000000   180.000000     0.000000     0.707107     0.707107     0.000000     0.000000     0.000000
   11     1.000000    90.000000     0.000000     1.000000     0.000000     0.000000     0.000000     0.000000
   12    -1.000000    90.000000     0.000000     1.000000     0.000000     0.000000     0.000000     0.000000
   13     1.000000   180.000000     0.000000     0.000000     1.000000     0.000000     0.000000     0.000000
   14    -1.000000   180.000000     0.000000     0.000000     1.000000     0.000000     0.000000     0.000000
   15     1.000000   120.000000    -0.577350     0.577350     0.577350     0.000000     0.000000     0.000000
   16    -1.000000   120.000000    -0.577350     0.577350     0.577350     0.000000     0.000000     0.000000
   17     1.000000   120.000000    -0.577350     0.577350    -0.577350     0.000000     0.000000     0.000000
   18    -1.000000   120.000000    -0.577350     0.577350    -0.577350     0.000000     0.000000     0.000000
   19     1.000000    90.000000     0.000000     0.000000     1.000000     0.000000     0.000000     0.000000
   20    -1.000000    90.000000     0.000000     0.000000     1.000000     0.000000     0.000000     0.000000
   21     1.000000    90.000000    -1.000000     0.000000     0.000000     0.000000     0.000000     0.000000
   22    -1.000000    90.000000    -1.000000     0.000000     0.000000     0.000000     0.000000     0.000000
   23     1.000000   180.000000     0.707107     0.000000     0.707107     0.000000     0.000000     0.000000
   24    -1.000000   180.000000     0.707107     0.000000     0.707107     0.000000     0.000000     0.000000
   25     1.000000   120.000000     0.577350    -0.577350     0.577350     0.000000     0.000000     0.000000
   26    -1.000000   120.000000     0.577350    -0.577350     0.577350     0.000000     0.000000     0.000000
   27     1.000000   120.000000    -0.577350    -0.577350     0.577350     0.000000     0.000000     0.000000
   28    -1.000000   120.000000    -0.577350    -0.577350     0.577350     0.000000     0.000000     0.000000
   29     1.000000   180.000000     1.000000     0.000000     0.000000     0.000000     0.000000     0.000000
   30    -1.000000   180.000000     1.000000     0.000000     0.000000     0.000000     0.000000     0.000000
   31     1.000000    90.000000     0.000000    -1.000000     0.000000     0.000000     0.000000     0.000000
   32    -1.000000    90.000000     0.000000    -1.000000     0.000000     0.000000     0.000000     0.000000
   33     1.000000   180.000000     0.707107     0.707107     0.000000     0.000000     0.000000     0.000000
   34    -1.000000   180.000000     0.707107     0.707107     0.000000     0.000000     0.000000     0.000000
   35     1.000000    90.000000     1.000000     0.000000     0.000000     0.000000     0.000000     0.000000
   36    -1.000000    90.000000     1.000000     0.000000     0.000000     0.000000     0.000000     0.000000
   37     1.000000   120.000000     0.577350    -0.577350    -0.577350     0.000000     0.000000     0.000000
   38    -1.000000   120.000000     0.577350    -0.577350    -0.577350     0.000000     0.000000     0.000000
   39     1.000000   180.000000     0.000000     1.000000     0.000000     0.000000     0.000000     0.000000
   40    -1.000000   180.000000     0.000000     1.000000     0.000000     0.000000     0.000000     0.000000
   41     1.000000   120.000000     0.577350     0.577350    -0.577350     0.000000     0.000000     0.000000
   42    -1.000000   120.000000     0.577350     0.577350    -0.577350     0.000000     0.000000     0.000000
   43     1.000000   180.000000     0.000000    -0.707107     0.707107     0.000000     0.000000     0.000000
   44    -1.000000   180.000000     0.000000    -0.707107     0.707107     0.000000     0.000000     0.000000
   45     1.000000   180.000000     0.707107    -0.707107     0.000000     0.000000     0.000000     0.000000
   46    -1.000000   180.000000     0.707107    -0.707107     0.000000     0.000000     0.000000     0.000000
   47     1.000000   180.000000     0.707107     0.000000    -0.707107     0.000000     0.000000     0.000000
   48    -1.000000   180.000000     0.707107     0.000000    -0.707107     0.000000     0.000000     0.000000
 
 Subroutine IBZKPT returns following result:
 ===========================================
 
 Found     56 irreducible k-points:
 
 Following reciprocal coordinates:
            Coordinates               Weight
  0.000000  0.000000  0.000000      1.000000
  0.090909  0.000000  0.000000      6.000000
  0.181818  0.000000  0.000000      6.000000
  0.272727  0.000000  0.000000      6.000000
  0.363636  0.000000  0.000000      6.000000
  0.454545  0.000000  0.000000      6.000000
  0.090909  0.090909  0.000000     12.000000
  0.181818  0.090909  0.000000     24.000000
  0.272727  0.090909  0.000000     24.000000
  0.363636  0.090909  0.000000     24.000000
  0.454545  0.090909  0.000000     24.000000
  0.181818  0.181818  0.000000     12.000000
  0.272727  0.181818  0.000000     24.000000
  0.363636  0.181818  0.000000     24.000000
  0.454545  0.181818  0.000000     24.000000
  0.272727  0.272727  0.000000     12.000000
  0.363636  0.272727  0.000000     24.000000
  0.454545  0.272727  0.000000     24.000000
  0.363636  0.363636  0.000000     12.000000
  0.454545  0.363636  0.000000     24.000000
  0.454545  0.454545  0.000000     12.000000
  0.090909  0.090909  0.090909      8.000000
  0.181818  0.090909  0.090909     24.000000
  0.272727  0.090909  0.090909     24.000000
  0.363636  0.090909  0.090909     24.000000
  0.454545  0.090909  0.090909     24.000000
  0.181818  0.181818  0.090909     24.000000
  0.272727  0.181818  0.090909     48.000000
  0.363636  0.181818  0.090909     48.000000
  0.454545  0.181818  0.090909     48.000000
  0.272727  0.272727  0.090909     24.000000
  0.363636  0.272727  0.090909     48.000000
  0.454545  0.272727  0.090909     48.000000
  0.363636  0.363636  0.090909     24.000000
  0.454545  0.363636  0.090909     48.000000
  0.454545  0.454545  0.090909     24.000000
  0.181818  0.181818  0.181818      8.000000
  0.272727  0.181818  0.181818     24.000000
  0.363636  0.181818  0.181818     24.000000
  0.454545  0.181818  0.181818     24.000000
  0.272727  0.272727  0.181818     24.000000
  0.363636  0.272727  0.181818     48.000000
  0.454545  0.272727  0.181818     48.000000
  0.363636  0.363636  0.181818     24.000000
  0.454545  0.363636  0.181818     48.000000
  0.454545  0.454545  0.181818     24.000000
  0.272727  0.272727  0.272727      8.000000
  0.363636  0.272727  0.272727     24.000000
  0.454545  0.272727  0.272727     24.000000
  0.363636  0.363636  0.272727     24.000000
  0.454545  0.363636  0.272727     48.000000
  0.454545  0.454545  0.272727     24.000000
  0.363636  0.363636  0.363636      8.000000
  0.454545  0.363636  0.363636     24.000000
  0.454545  0.454545  0.363636     24.000000
  0.454545  0.454545  0.454545      8.000000
 
 Following cartesian coordinates:
            Coordinates               Weight
  0.000000  0.000000  0.000000      1.000000
  0.025971  0.000000  0.000000      6.000000
  0.051941  0.000000  0.000000      6.000000
  0.077912  0.000000  0.000000      6.000000
  0.103883  0.000000  0.000000      6.000000
  0.129854  0.000000  0.000000      6.000000
  0.025971  0.025971  0.000000     12.000000
  0.051941  0.025971  0.000000     24.000000
  0.077912  0.025971  0.000000     24.000000
  0.103883  0.025971  0.000000     24.000000
  0.129854  0.025971  0.000000     24.000000
  0.051941  0.051941  0.000000     12.000000
  0.077912  0.051941  0.000000     24.000000
  0.103883  0.051941  0.000000     24.000000
  0.129854  0.051941  0.000000     24.000000
  0.077912  0.077912  0.000000     12.000000
  0.103883  0.077912  0.000000     24.000000
  0.129854  0.077912  0.000000     24.000000
  0.103883  0.103883  0.000000     12.000000
  0.129854  0.103883  0.000000     24.000000
  0.129854  0.129854  0.000000     12.000000
  0.025971  0.025971  0.025971      8.000000
  0.051941  0.025971  0.025971     24.000000
  0.077912  0.025971  0.025971     24.000000
  0.103883  0.025971  0.025971     24.000000
  0.129854  0.025971  0.025971     24.000000
  0.051941  0.051941  0.025971     24.000000
  0.077912  0.051941  0.025971     48.000000
  0.103883  0.051941  0.025971     48.000000
  0.129854  0.051941  0.025971     48.000000
  0.077912  0.077912  0.025971     24.000000
  0.103883  0.077912  0.025971     48.000000
  0.129854  0.077912  0.025971     48.000000
  0.103883  0.103883  0.025971     24.000000
  0.129854  0.103883  0.025971     48.000000
  0.129854  0.129854  0.025971     24.000000
  0.051941  0.051941  0.051941      8.000000
  0.077912  0.051941  0.051941     24.000000
  0.103883  0.051941  0.051941     24.000000
  0.129854  0.051941  0.051941     24.000000
  0.077912  0.077912  0.051941     24.000000
  0.103883  0.077912  0.051941     48.000000
  0.129854  0.077912  0.051941     48.000000
  0.103883  0.103883  0.051941     24.000000
  0.129854  0.103883  0.051941     48.000000
  0.129854  0.129854  0.051941     24.000000
  0.077912  0.077912  0.077912      8.000000
  0.103883  0.077912  0.077912     24.000000
  0.129854  0.077912  0.077912     24.000000
  0.103883  0.103883  0.077912     24.000000
  0.129854  0.103883  0.077912     48.000000
  0.129854  0.129854  0.077912     24.000000
  0.103883  0.103883  0.103883      8.000000
  0.129854  0.103883  0.103883     24.000000
  0.129854  0.129854  0.103883     24.000000
  0.129854  0.129854  0.129854      8.000000
 


--------------------------------------------------------------------------------------------------------




 Dimension of arrays:
   k-points           NKPTS =     56   k-points in BZ     NKDIM =     56   number of bands    NBANDS=     26
   number of dos      NEDOS =   3000   number of ions     NIONS =      4
   non local maximal  LDIM  =      6   non local SUM 2l+1 LMDIM =     18
   total plane-waves  NPLWV =  13824
   max r-space proj   IRMAX =   3169   max aug-charges    IRDMAX=  10646
   dimension x,y,z NGX =    24 NGY =   24 NGZ =   24
   dimension x,y,z NGXF=    48 NGYF=   48 NGZF=   48
   support grid    NGXF=    48 NGYF=   48 NGZF=   48
   ions per type =               4
 NGX,Y,Z   is equivalent  to a cutoff of  11.40, 11.40, 11.40 a.u.
 NGXF,Y,Z  is equivalent  to a cutoff of  22.80, 22.80, 22.80 a.u.


 I would recommend the setting:
   dimension x,y,z NGX =    23 NGY =   23 NGZ =   23
 SYSTEM =  Cu-lattice                              
 POSCAR =  Ni                                      

 Startparameter for this run:
   NWRITE =      0    write-flag & timer
   PREC   = normal    normal or accurate (medium, high low for compatibility)
   ISTART =      0    job   : 0-new  1-cont  2-samecut
   ICHARG =      2    charge: 1-file 2-atom 10-const
   ISPIN  =      2    spin polarized calculation?
   LNONCOLLINEAR =      F non collinear calculations
   LSORBIT =      F    spin-orbit coupling
   INIWAV =      1    electr: 0-lowe 1-rand  2-diag
   LASPH  =      F    aspherical Exc in radial PAW
   METAGGA=      F    non-selfconsistent MetaGGA calc.

 Electronic Relaxation 1
   ENCUT  =  700.0 eV  51.45 Ry    7.17 a.u.   7.55  7.55  7.55*2*pi/ulx,y,z
   ENINI  =  700.0     initial cutoff
   ENAUG  =  544.6 eV  augmentation charge cutoff
   NELM   =    100;   NELMIN=  2; NELMDL= -5     # of ELM steps 
   EDIFF  = 0.1E-06   stopping-criterion for ELM
   LREAL  =      T    real-space projection
   NLSPLINE    = F    spline interpolate recip. space projectors
   LCOMPAT=      F    compatible to vasp.4.4
   GGA_COMPAT  = T    GGA compatible to vasp.4.4-vasp.4.6
   LMAXPAW     = -100 max onsite density
   LMAXMIX     =    2 max onsite mixed and CHGCAR
   VOSKOWN=      0    Vosko Wilk Nusair interpolation
   ROPT   =   -0.00050
 Ionic relaxation
   EDIFFG = -.2E-01   stopping-criterion for IOM
   NSW    =      1    number of steps for IOM
   NBLOCK =      1;   KBLOCK =      1    inner block; outer block 
   IBRION =      1    ionic relax: 0-MD 1-quasi-New 2-CG
   NFREE  =      0    steps in history (QN), initial steepest desc. (CG)
   ISIF   =      3    stress and relaxation
   IWAVPR =     11    prediction:  0-non 1-charg 2-wave 3-comb
   ISYM   =      2    0-nonsym 1-usesym 2-fastsym
   LCORR  =      T    Harris-Foulkes like correction to forces

   POTIM  = 0.1000    time-step for ionic-motion
   TEIN   =    0.0    initial temperature
   TEBEG  =    0.0;   TEEND  =   0.0 temperature during run
   SMASS  =  -3.00    Nose mass-parameter (am)
   estimated Nose-frequenzy (Omega)   =  0.10E-29 period in steps =****** mass=  -0.280E-27a.u.
   SCALEE = 1.0000    scale energy and forces
   NPACO  =    256;   APACO  = 16.0  distance and # of slots for P.C.
   PSTRESS=    0.0 pullay stress

  Mass of Ions in am
   POMASS =  58.69
  Ionic Valenz
   ZVAL   =  10.00
  Atomic Wigner-Seitz radii
   RWIGS  =  -1.00
  virtual crystal weights 
   VCA    =   1.00
   NELECT =      40.0000    total number of electrons
   NUPDOWN=      -1.0000    fix difference up-down

 DOS related values:
   EMIN   =  10.00;   EMAX   =-10.00  energy-range for DOS
   EFERMI =   0.00
   ISMEAR =     1;   SIGMA  =   0.10  broadening in eV -4-tet -1-fermi 0-gaus

 Electronic relaxation 2 (details)
   IALGO  =     68    algorithm
   LDIAG  =      T    sub-space diagonalisation (order eigenvalues)
   LSUBROT=      F    optimize rotation matrix (better conditioning)
   TURBO    =      0    0=normal 1=particle mesh
   IRESTART =      0    0=no restart 2=restart with 2 vectors
   NREBOOT  =      0    no. of reboots
   NMIN     =      0    reboot dimension
   EREF     =   0.00    reference energy to select bands
   IMIX   =      4    mixing-type and parameters
     AMIX     =   0.40;   BMIX     =  1.00
     AMIX_MAG =   1.60;   BMIX_MAG =  1.00
     AMIN     =   0.10
     WC   =   100.;   INIMIX=   1;  MIXPRE=   1;  MAXMIX= -45

 Intra band minimization:
   WEIMIN = 0.0010     energy-eigenvalue tresh-hold
   EBREAK =  0.96E-09  absolut break condition
   DEPER  =   0.30     relativ break condition  

   TIME   =   0.40     timestep for ELM

  volume/ion in A,a.u.               =      10.72        72.36
  Fermi-wavevector in a.u.,A,eV,Ry     =   1.599452  3.022527 34.807075  2.558248
  Thomas-Fermi vector in A             =   2.696743
 
 Write flags
   LWAVE  =      T    write WAVECAR
   LCHARG =      T    write CHGCAR
   LVTOT  =      F    write LOCPOT, total local potential
   LVHAR  =      F    write LOCPOT, Hartree potential only
   LELF   =      F    write electronic localiz. function (ELF)
   LORBIT =     11    0 simple, 1 ext, 2 COOP (PROOUT)


 Dipole corrections
   LMONO  =      F    monopole corrections only (constant potential shift)
   LDIPOL =      F    correct potential (dipole corrections)
   IDIPOL =      0    1-x, 2-y, 3-z, 4-all directions 
   EPSILON=  1.0000000 bulk dielectric constant

 Exchange correlation treatment:
   GGA     =    PE    GGA type
   LEXCH   =     8    internal setting for exchange type
   VOSKOWN=      0    Vosko Wilk Nusair interpolation
   LHFCALC =     F    Hartree Fock is set to
   LHFONE  =     F    Hartree Fock one center treatment
   AEXX    =    0.0000 exact exchange contribution

 Linear response parameters
   LEPSILON=     F    determine dielectric tensor
   LRPA    =     F    only Hartree local field effects (RPA)
   LNABLA  =     F    use nabla operator in PAW spheres
   LVEL    =     F    velocity operator in full k-point grid
   LINTERFAST=   F  fast interpolation
   KINTER  =     0    interpolate to denser k-point grid
   CSHIFT  =0.1000    complex shift for real part using Kramers Kronig
   OMEGAMAX=  -1.0    maximum frequency
   DEG_THRESHOLD= 0.2000000E-02 threshold for treating states as degnerate
   RTIME   =    0.100 relaxation time in fs

 Orbital magnetization related:
   ORBITALMAG=     F  switch on orbital magnetization
   LCHIMAG   =     F  perturbation theory with respect to B field
   DQ        =  0.001000  dq finite difference perturbation B field



--------------------------------------------------------------------------------------------------------


 quasi-Newton-method for relaxation of ions
 charge density and potential will be updated during run
 spin polarized calculation
 RMM-DIIS sequential band-by-band and
  variant of blocked Davidson during initial phase
 perform sub-space diagonalisation
    before iterative eigenvector-optimisation
 modified Broyden-mixing scheme, WC =      100.0
 initial mixing is a Kerker type mixing with AMIX =  0.4000 and BMIX =      1.0000
 Hartree-type preconditioning will be used
 using additional bands            6
 real space projection scheme for non local part
 use partial core corrections
 calculate Harris-corrections to forces 
   (improved forces if not selfconsistent)
 use gradient corrections 
 use of overlap-Matrix (Vanderbilt PP)
 Methfessel and Paxton  Order N= 1 SIGMA  =   0.10


--------------------------------------------------------------------------------------------------------


  energy-cutoff  :      700.00
  volume of cell :       42.89
      direct lattice vectors                 reciprocal lattice vectors
     3.500447103  0.000000000  0.000000000     0.285677792  0.000000000  0.000000000
     0.000000000  3.500447103  0.000000000     0.000000000  0.285677792  0.000000000
     0.000000000  0.000000000  3.500447103     0.000000000  0.000000000  0.285677792

  length of vectors
     3.500447103  3.500447103  3.500447103     0.285677792  0.285677792  0.285677792


 
 k-points in units of 2pi/SCALE and weight: K-POINTS                                
   0.00000000  0.00000000  0.00000000       0.001
   0.02597071  0.00000000  0.00000000       0.005
   0.05194142  0.00000000  0.00000000       0.005
   0.07791213  0.00000000  0.00000000       0.005
   0.10388283  0.00000000  0.00000000       0.005
   0.12985354  0.00000000  0.00000000       0.005
   0.02597071  0.02597071  0.00000000       0.009
   0.05194142  0.02597071  0.00000000       0.018
   0.07791213  0.02597071  0.00000000       0.018
   0.10388283  0.02597071  0.00000000       0.018
   0.12985354  0.02597071  0.00000000       0.018
   0.05194142  0.05194142  0.00000000       0.009
   0.07791213  0.05194142  0.00000000       0.018
   0.10388283  0.05194142  0.00000000       0.018
   0.12985354  0.05194142  0.00000000       0.018
   0.07791213  0.07791213  0.00000000       0.009
   0.10388283  0.07791213  0.00000000       0.018
   0.12985354  0.07791213  0.00000000       0.018
   0.10388283  0.10388283  0.00000000       0.009
   0.12985354  0.10388283  0.00000000       0.018
   0.12985354  0.12985354  0.00000000       0.009
   0.02597071  0.02597071  0.02597071       0.006
   0.05194142  0.02597071  0.02597071       0.018
   0.07791213  0.02597071  0.02597071       0.018
   0.10388283  0.02597071  0.02597071       0.018
   0.12985354  0.02597071  0.02597071       0.018
   0.05194142  0.05194142  0.02597071       0.018
   0.07791213  0.05194142  0.02597071       0.036
   0.10388283  0.05194142  0.02597071       0.036
   0.12985354  0.05194142  0.02597071       0.036
   0.07791213  0.07791213  0.02597071       0.018
   0.10388283  0.07791213  0.02597071       0.036
   0.12985354  0.07791213  0.02597071       0.036
   0.10388283  0.10388283  0.02597071       0.018
   0.12985354  0.10388283  0.02597071       0.036
   0.12985354  0.12985354  0.02597071       0.018
   0.05194142  0.05194142  0.05194142       0.006
   0.07791213  0.05194142  0.05194142       0.018
   0.10388283  0.05194142  0.05194142       0.018
   0.12985354  0.05194142  0.05194142       0.018
   0.07791213  0.07791213  0.05194142       0.018
   0.10388283  0.07791213  0.05194142       0.036
   0.12985354  0.07791213  0.05194142       0.036
   0.10388283  0.10388283  0.05194142       0.018
   0.12985354  0.10388283  0.05194142       0.036
   0.12985354  0.12985354  0.05194142       0.018
   0.07791213  0.07791213  0.07791213       0.006
   0.10388283  0.07791213  0.07791213       0.018
   0.12985354  0.07791213  0.07791213       0.018
   0.10388283  0.10388283  0.07791213       0.018
   0.12985354  0.10388283  0.07791213       0.036
   0.12985354  0.12985354  0.07791213       0.018
   0.10388283  0.10388283  0.10388283       0.006
   0.12985354  0.10388283  0.10388283       0.018
   0.12985354  0.12985354  0.10388283       0.018
   0.12985354  0.12985354  0.12985354       0.006
 
 k-points in reciprocal lattice and weights: K-POINTS                                
   0.00000000  0.00000000  0.00000000       0.001
   0.09090909  0.00000000  0.00000000       0.005
   0.18181818  0.00000000  0.00000000       0.005
   0.27272727  0.00000000  0.00000000       0.005
   0.36363636  0.00000000  0.00000000       0.005
   0.45454545  0.00000000  0.00000000       0.005
   0.09090909  0.09090909  0.00000000       0.009
   0.18181818  0.09090909  0.00000000       0.018
   0.27272727  0.09090909  0.00000000       0.018
   0.36363636  0.09090909  0.00000000       0.018
   0.45454545  0.09090909  0.00000000       0.018
   0.18181818  0.18181818  0.00000000       0.009
   0.27272727  0.18181818  0.00000000       0.018
   0.36363636  0.18181818  0.00000000       0.018
   0.45454545  0.18181818  0.00000000       0.018
   0.27272727  0.27272727  0.00000000       0.009
   0.36363636  0.27272727  0.00000000       0.018
   0.45454545  0.27272727  0.00000000       0.018
   0.36363636  0.36363636  0.00000000       0.009
   0.45454545  0.36363636  0.00000000       0.018
   0.45454545  0.45454545  0.00000000       0.009
   0.09090909  0.09090909  0.09090909       0.006
   0.18181818  0.09090909  0.09090909       0.018
   0.27272727  0.09090909  0.09090909       0.018
   0.36363636  0.09090909  0.09090909       0.018
   0.45454545  0.09090909  0.09090909       0.018
   0.18181818  0.18181818  0.09090909       0.018
   0.27272727  0.18181818  0.09090909       0.036
   0.36363636  0.18181818  0.09090909       0.036
   0.45454545  0.18181818  0.09090909       0.036
   0.27272727  0.27272727  0.09090909       0.018
   0.36363636  0.27272727  0.09090909       0.036
   0.45454545  0.27272727  0.09090909       0.036
   0.36363636  0.36363636  0.09090909       0.018
   0.45454545  0.36363636  0.09090909       0.036
   0.45454545  0.45454545  0.09090909       0.018
   0.18181818  0.18181818  0.18181818       0.006
   0.27272727  0.18181818  0.18181818       0.018
   0.36363636  0.18181818  0.18181818       0.018
   0.45454545  0.18181818  0.18181818       0.018
   0.27272727  0.27272727  0.18181818       0.018
   0.36363636  0.27272727  0.18181818       0.036
   0.45454545  0.27272727  0.18181818       0.036
   0.36363636  0.36363636  0.18181818       0.018
   0.45454545  0.36363636  0.18181818       0.036
   0.45454545  0.45454545  0.18181818       0.018
   0.27272727  0.27272727  0.27272727       0.006
   0.36363636  0.27272727  0.27272727       0.018
   0.45454545  0.27272727  0.27272727       0.018
   0.36363636  0.36363636  0.27272727       0.018
   0.45454545  0.36363636  0.27272727       0.036
   0.45454545  0.45454545  0.27272727       0.018
   0.36363636  0.36363636  0.36363636       0.006
   0.45454545  0.36363636  0.36363636       0.018
   0.45454545  0.45454545  0.36363636       0.018
   0.45454545  0.45454545  0.45454545       0.006
 
 position of ions in fractional coordinates (direct lattice) 
   0.00000000  0.00000000  0.00000000
   0.00000000  0.50000000  0.50000000
   0.50000000  0.00000000  0.50000000
   0.50000000  0.50000000  0.00000000
 
 position of ions in cartesian coordinates  (Angst):
   0.00000000  0.00000000  0.00000000
   0.00000000  1.75022355  1.75022355
   1.75022355  0.00000000  1.75022355
   1.75022355  1.75022355  0.00000000
 


--------------------------------------------------------------------------------------------------------


 k-point  1 :   0.0000 0.0000 0.0000  plane waves:    1839
 k-point  2 :   0.0909 0.0000 0.0000  plane waves:    1811
 k-point  3 :   0.1818 0.0000 0.0000  plane waves:    1815
 k-point  4 :   0.2727 0.0000 0.0000  plane waves:    1803
 k-point  5 :   0.3636 0.0000 0.0000  plane waves:    1807
 k-point  6 :   0.4545 0.0000 0.0000  plane waves:    1820
 k-point  7 :   0.0909 0.0909 0.0000  plane waves:    1813
 k-point  8 :   0.1818 0.0909 0.0000  plane waves:    1818
 k-point  9 :   0.2727 0.0909 0.0000  plane waves:    1806
 k-point 10 :   0.3636 0.0909 0.0000  plane waves:    1807
 k-point 11 :   0.4545 0.0909 0.0000  plane waves:    1812
 k-point 12 :   0.1818 0.1818 0.0000  plane waves:    1815
 k-point 13 :   0.2727 0.1818 0.0000  plane waves:    1809
 k-point 14 :   0.3636 0.1818 0.0000  plane waves:    1805
 k-point 15 :   0.4545 0.1818 0.0000  plane waves:    1810
 k-point 16 :   0.2727 0.2727 0.0000  plane waves:    1811
 k-point 17 :   0.3636 0.2727 0.0000  plane waves:    1810
 k-point 18 :   0.4545 0.2727 0.0000  plane waves:    1807
 k-point 19 :   0.3636 0.3636 0.0000  plane waves:    1804
 k-point 20 :   0.4545 0.3636 0.0000  plane waves:    1798
 k-point 21 :   0.4545 0.4545 0.0000  plane waves:    1786
 k-point 22 :   0.0909 0.0909 0.0909  plane waves:    1812
 k-point 23 :   0.1818 0.0909 0.0909  plane waves:    1817
 k-point 24 :   0.2727 0.0909 0.0909  plane waves:    1809
 k-point 25 :   0.3636 0.0909 0.0909  plane waves:    1809
 k-point 26 :   0.4545 0.0909 0.0909  plane waves:    1808
 k-point 27 :   0.1818 0.1818 0.0909  plane waves:    1812
 k-point 28 :   0.2727 0.1818 0.0909  plane waves:    1812
 k-point 29 :   0.3636 0.1818 0.0909  plane waves:    1807
 k-point 30 :   0.4545 0.1818 0.0909  plane waves:    1801
 k-point 31 :   0.2727 0.2727 0.0909  plane waves:    1812
 k-point 32 :   0.3636 0.2727 0.0909  plane waves:    1805
 k-point 33 :   0.4545 0.2727 0.0909  plane waves:    1801
 k-point 34 :   0.3636 0.3636 0.0909  plane waves:    1802
 k-point 35 :   0.4545 0.3636 0.0909  plane waves:    1795
 k-point 36 :   0.4545 0.4545 0.0909  plane waves:    1789
 k-point 37 :   0.1818 0.1818 0.1818  plane waves:    1815
 k-point 38 :   0.2727 0.1818 0.1818  plane waves:    1810
 k-point 39 :   0.3636 0.1818 0.1818  plane waves:    1812
 k-point 40 :   0.4545 0.1818 0.1818  plane waves:    1803
 k-point 41 :   0.2727 0.2727 0.1818  plane waves:    1816
 k-point 42 :   0.3636 0.2727 0.1818  plane waves:    1803
 k-point 43 :   0.4545 0.2727 0.1818  plane waves:    1797
 k-point 44 :   0.3636 0.3636 0.1818  plane waves:    1793
 k-point 45 :   0.4545 0.3636 0.1818  plane waves:    1789
 k-point 46 :   0.4545 0.4545 0.1818  plane waves:    1794
 k-point 47 :   0.2727 0.2727 0.2727  plane waves:    1803
 k-point 48 :   0.3636 0.2727 0.2727  plane waves:    1798
 k-point 49 :   0.4545 0.2727 0.2727  plane waves:    1795
 k-point 50 :   0.3636 0.3636 0.2727  plane waves:    1804
 k-point 51 :   0.4545 0.3636 0.2727  plane waves:    1795
 k-point 52 :   0.4545 0.4545 0.2727  plane waves:    1785
 k-point 53 :   0.3636 0.3636 0.3636  plane waves:    1790
 k-point 54 :   0.4545 0.3636 0.3636  plane waves:    1805
 k-point 55 :   0.4545 0.4545 0.3636  plane waves:    1810
 k-point 56 :   0.4545 0.4545 0.4545  plane waves:    1808

 maximum and minimum number of plane-waves per node :       323      288

 maximum number of plane-waves:      1839
 maximum index in each direction: 
   IXMAX=    7   IYMAX=    7   IZMAX=    7
   IXMIN=   -8   IYMIN=   -7   IZMIN=   -7

 WARNING: aliasing errors must be expected set NGX to  32 to avoid them
 WARNING: aliasing errors must be expected set NGY to  30 to avoid them
 WARNING: aliasing errors must be expected set NGZ to  30 to avoid them
 aliasing errors are usually negligible using standard VASP settings
 and one can safely disregard these warnings

 real space projection operators:
  total allocation   :       1670.06 KBytes
  max/ min on nodes  :        294.19        248.62


 parallel 3D FFT for wavefunctions:
    minimum data exchange during FFTs selected (reduces bandwidth)
 parallel 3D FFT for charge:
    minimum data exchange during FFTs selected (reduces bandwidth)


 total amount of memory used by VASP on root node    39455. kBytes
========================================================================

   base      :      30000. kBytes
   nonlr-proj:        569. kBytes
   fftplans  :        389. kBytes
   grid      :        872. kBytes
   one-center:         31. kBytes
   wavefun   :       7594. kBytes
 
     INWAV:  cpu time    0.00: real time    0.00
 Broyden mixing: mesh for mixing (old mesh)
   NGX = 15   NGY = 15   NGZ = 15
  (NGX  = 48   NGY  = 48   NGZ  = 48)
  gives a total of   3375 points

 initial charge density was supplied:
 charge density of overlapping atoms calculated
 number of electron      40.0000000 magnetization       4.0000000
 keeping initial charge density in first step


--------------------------------------------------------------------------------------------------------


 Maximum index for non-local projection operator          523
 Maximum index for augmentation-charges          795 (set IRDMAX)


--------------------------------------------------------------------------------------------------------


 First call to EWALD:  gamma=   0.506
 Maximum number of real-space cells 3x 3x 3
 Maximum number of reciprocal cells 3x 3x 3

 FEWALD executed in parallel
    FEWALD:  cpu time    0.00: real time    0.00


----------------------------------------- Iteration    1(   1)  ---------------------------------------


    POTLOK:  cpu time    0.02: real time    0.03
    SETDIJ:  cpu time    0.01: real time    0.01
     EDDAV:  cpu time    2.75: real time    2.78
       DOS:  cpu time    0.02: real time    0.02
    --------------------------------------------
      LOOP:  cpu time    2.81: real time    2.85

 eigenvalue-minimisations  :  5904
 total energy-change (2. order) : 0.2875236E+03  (-0.2232266E+04)
 number of electron      40.0000000 magnetization       4.0000000
 augmentation part       40.0000000 magnetization       4.0000000

 Free energy of the ion-electron system (eV)
  ---------------------------------------------------
  alpha Z        PSCENC =       190.24554706
  Ewald energy   TEWEN  =     -3772.14891794
  -Hartree energ DENC   =      -971.32795164
  -exchange      EXHF   =         0.00000000
  -V(xc)+E(xc)   XCENC  =       127.29896098
  PAW double counting   =      3851.33269441    -4118.68284910
  entropy T*S    EENTRO =        -0.00040000
  eigenvalues    EBANDS =       670.11351767
  atomic energy  EATOM  =      4310.69299218
  ---------------------------------------------------
  free energy    TOTEN  =       287.52359362 eV

  energy without entropy =      287.52399361  energy(sigma->0) =      287.52372695


--------------------------------------------------------------------------------------------------------




----------------------------------------- Iteration    1(   2)  ---------------------------------------


     EDDAV:  cpu time    2.73: real time    2.76
       DOS:  cpu time    0.03: real time    0.03
    --------------------------------------------
      LOOP:  cpu time    2.76: real time    2.79

 eigenvalue-minimisations  :  5840
 total energy-change (2. order) :-0.2960991E+03  (-0.2874602E+03)
 number of electron      40.0000000 magnetization       4.0000000
 augmentation part       40.0000000 magnetization       4.0000000

 Free energy of the ion-electron system (eV)
  ---------------------------------------------------
  alpha Z        PSCENC =       190.24554706
  Ewald energy   TEWEN  =     -3772.14891794
  -Hartree energ DENC   =      -971.32795164
  -exchange      EXHF   =         0.00000000
  -V(xc)+E(xc)   XCENC  =       127.29896098
  PAW double counting   =      3851.33269441    -4118.68284910
  entropy T*S    EENTRO =         0.00330519
  eigenvalues    EBANDS =       374.01071123
  atomic energy  EATOM  =      4310.69299218
  ---------------------------------------------------
  free energy    TOTEN  =        -8.57550763 eV

  energy without entropy =       -8.57881282  energy(sigma->0) =       -8.57660936


--------------------------------------------------------------------------------------------------------




----------------------------------------- Iteration    1(   3)  ---------------------------------------


     EDDAV:  cpu time    2.76: real time    2.79
       DOS:  cpu time    0.03: real time    0.04
    --------------------------------------------
      LOOP:  cpu time    2.80: real time    2.83

 eigenvalue-minimisations  :  5938
 total energy-change (2. order) :-0.1713403E+02  (-0.1637619E+02)
 number of electron      40.0000000 magnetization       4.0000000
 augmentation part       40.0000000 magnetization       4.0000000

 Free energy of the ion-electron system (eV)
  ---------------------------------------------------
  alpha Z        PSCENC =       190.24554706
  Ewald energy   TEWEN  =     -3772.14891794
  -Hartree energ DENC   =      -971.32795164
  -exchange      EXHF   =         0.00000000
  -V(xc)+E(xc)   XCENC  =       127.29896098
  PAW double counting   =      3851.33269441    -4118.68284910
  entropy T*S    EENTRO =         0.00217229
  eigenvalues    EBANDS =       356.87781281
  atomic energy  EATOM  =      4310.69299218
  ---------------------------------------------------
  free energy    TOTEN  =       -25.70953896 eV

  energy without entropy =      -25.71171125  energy(sigma->0) =      -25.71026306


--------------------------------------------------------------------------------------------------------




----------------------------------------- Iteration    1(   4)  ---------------------------------------


     EDDAV:  cpu time    2.92: real time    2.95
       DOS:  cpu time    0.04: real time    0.04
    --------------------------------------------
      LOOP:  cpu time    2.96: real time    2.99

 eigenvalue-minimisations  :  6358
 total energy-change (2. order) :-0.2579306E+00  (-0.2574505E+00)
 number of electron      40.0000000 magnetization       4.0000000
 augmentation part       40.0000000 magnetization       4.0000000

 Free energy of the ion-electron system (eV)
  ---------------------------------------------------
  alpha Z        PSCENC =       190.24554706
  Ewald energy   TEWEN  =     -3772.14891794
  -Hartree energ DENC   =      -971.32795164
  -exchange      EXHF   =         0.00000000
  -V(xc)+E(xc)   XCENC  =       127.29896098
  PAW double counting   =      3851.33269441    -4118.68284910
  entropy T*S    EENTRO =         0.00197599
  eigenvalues    EBANDS =       356.62007855
  atomic energy  EATOM  =      4310.69299218
  ---------------------------------------------------
  free energy    TOTEN  =       -25.96746952 eV

  energy without entropy =      -25.96944551  energy(sigma->0) =      -25.96812818


--------------------------------------------------------------------------------------------------------




----------------------------------------- Iteration    1(   5)  ---------------------------------------


     EDDAV:  cpu time    3.23: real time    3.26
       DOS:  cpu time    0.04: real time    0.04
    CHARGE:  cpu time    0.18: real time    0.18
    MIXING:  cpu time    0.00: real time    0.00
    --------------------------------------------
      LOOP:  cpu time    3.44: real time    3.47

 eigenvalue-minimisations  :  7170
 total energy-change (2. order) :-0.8010210E-02  (-0.8009743E-02)
 number of electron      40.0000066 magnetization       2.8868457
 augmentation part       22.4367766 magnetization       2.4257605

 Broyden mixing:
  rms(total) = 0.20121E+01    rms(broyden)= 0.20121E+01
  rms(prec ) = 0.40790E+01
  weight for this iteration     100.00

 Free energy of the ion-electron system (eV)
  ---------------------------------------------------
  alpha Z        PSCENC =       190.24554706
  Ewald energy   TEWEN  =     -3772.14891794
  -Hartree energ DENC   =      -971.32795164
  -exchange      EXHF   =         0.00000000
  -V(xc)+E(xc)   XCENC  =       127.29896098
  PAW double counting   =      3851.33269441    -4118.68284910
  entropy T*S    EENTRO =         0.00197418
  eigenvalues    EBANDS =       356.61207015
  atomic energy  EATOM  =      4310.69299218
  ---------------------------------------------------
  free energy    TOTEN  =       -25.97547973 eV

  energy without entropy =      -25.97745391  energy(sigma->0) =      -25.97613779


--------------------------------------------------------------------------------------------------------




----------------------------------------- Iteration    1(   6)  ---------------------------------------


    POTLOK:  cpu time    0.02: real time    0.02
    SETDIJ:  cpu time    0.01: real time    0.01
    EDDIAG:  cpu time    0.46: real time    0.47
  RMM-DIIS:  cpu time    1.55: real time    1.56
    ORTHCH:  cpu time    0.05: real time    0.05
       DOS:  cpu time    0.04: real time    0.04
    CHARGE:  cpu time    0.17: real time    0.17
    MIXING:  cpu time    0.00: real time    0.00
    --------------------------------------------
      LOOP:  cpu time    2.31: real time    2.34

 eigenvalue-minimisations  :  5824
 total energy-change (2. order) : 0.2788007E+01  (-0.3825820E+01)
 number of electron      40.0000075 magnetization       2.4113755
 augmentation part       25.9401112 magnetization       2.3565035

 Broyden mixing:
  rms(total) = 0.12361E+01    rms(broyden)= 0.12361E+01
  rms(prec ) = 0.19954E+01
  weight for this iteration     100.00

 eigenvalues of (default mixing * dielectric matrix)
  average eigenvalue GAMMA=   0.6985
  0.6985

 Free energy of the ion-electron system (eV)
  ---------------------------------------------------
  alpha Z        PSCENC =       190.24554706
  Ewald energy   TEWEN  =     -3772.14891794
  -Hartree energ DENC   =      -875.18586228
  -exchange      EXHF   =         0.00000000
  -V(xc)+E(xc)   XCENC  =       122.29194515
  PAW double counting   =      4129.02172106    -4378.84442602
  entropy T*S    EENTRO =         0.00268543
  eigenvalues    EBANDS =       250.73684280
  atomic energy  EATOM  =      4310.69299218
  ---------------------------------------------------
  free energy    TOTEN  =       -23.18747257 eV

  energy without entropy =      -23.19015800  energy(sigma->0) =      -23.18836771


--------------------------------------------------------------------------------------------------------




----------------------------------------- Iteration    1(   7)  ---------------------------------------


    POTLOK:  cpu time    0.02: real time    0.02
    SETDIJ:  cpu time    0.01: real time    0.01
    EDDIAG:  cpu time    0.46: real time    0.47
  RMM-DIIS:  cpu time    1.55: real time    1.57
    ORTHCH:  cpu time    0.05: real time    0.05
       DOS:  cpu time    0.04: real time    0.04
    CHARGE:  cpu time    0.18: real time    0.18
    MIXING:  cpu time    0.00: real time    0.00
    --------------------------------------------
      LOOP:  cpu time    2.31: real time    2.35

 eigenvalue-minimisations  :  5824
 total energy-change (2. order) : 0.1245810E+01  (-0.6250098E+00)
 number of electron      40.0000071 magnetization       2.5873429
 augmentation part       24.4431807 magnetization       2.4393021

 Broyden mixing:
  rms(total) = 0.39472E+00    rms(broyden)= 0.39472E+00
  rms(prec ) = 0.59062E+00
  weight for this iteration     100.00

 eigenvalues of (default mixing * dielectric matrix)
  average eigenvalue GAMMA=   0.8803
  1.1771  0.5836

 Free energy of the ion-electron system (eV)
  ---------------------------------------------------
  alpha Z        PSCENC =       190.24554706
  Ewald energy   TEWEN  =     -3772.14891794
  -Hartree energ DENC   =      -904.10598903
  -exchange      EXHF   =         0.00000000
  -V(xc)+E(xc)   XCENC  =       123.72581235
  PAW double counting   =      4297.07449315    -4562.76612672
  entropy T*S    EENTRO =         0.00372412
  eigenvalues    EBANDS =       295.33680261
  atomic energy  EATOM  =      4310.69299218
  ---------------------------------------------------
  free energy    TOTEN  =       -21.94166223 eV

  energy without entropy =      -21.94538635  energy(sigma->0) =      -21.94290360


--------------------------------------------------------------------------------------------------------




----------------------------------------- Iteration    1(   8)  ---------------------------------------


    POTLOK:  cpu time    0.02: real time    0.02
    SETDIJ:  cpu time    0.01: real time    0.01
    EDDIAG:  cpu time    0.46: real time    0.46
  RMM-DIIS:  cpu time    1.57: real time    1.59
    ORTHCH:  cpu time    0.05: real time    0.05
       DOS:  cpu time    0.04: real time    0.04
    CHARGE:  cpu time    0.17: real time    0.17
    MIXING:  cpu time    0.00: real time    0.00
    --------------------------------------------
      LOOP:  cpu time    2.33: real time    2.35

 eigenvalue-minimisations  :  5913
 total energy-change (2. order) : 0.6482443E-01  (-0.2567680E-02)
 number of electron      40.0000072 magnetization       2.5801901
 augmentation part       24.5832211 magnetization       2.4653945

 Broyden mixing:
  rms(total) = 0.18815E+00    rms(broyden)= 0.18815E+00
  rms(prec ) = 0.23881E+00
  weight for this iteration     100.00

 eigenvalues of (default mixing * dielectric matrix)
  average eigenvalue GAMMA=   1.0098
  1.7909  0.6192  0.6192

 Free energy of the ion-electron system (eV)
  ---------------------------------------------------
  alpha Z        PSCENC =       190.24554706
  Ewald energy   TEWEN  =     -3772.14891794
  -Hartree energ DENC   =      -893.96426300
  -exchange      EXHF   =         0.00000000
  -V(xc)+E(xc)   XCENC  =       123.30728284
  PAW double counting   =      4475.89750535    -4746.77539993
  entropy T*S    EENTRO =         0.00352135
  eigenvalues    EBANDS =       290.86489431
  atomic energy  EATOM  =      4310.69299218
  ---------------------------------------------------
  free energy    TOTEN  =       -21.87683780 eV

  energy without entropy =      -21.88035914  energy(sigma->0) =      -21.87801158


--------------------------------------------------------------------------------------------------------




----------------------------------------- Iteration    1(   9)  ---------------------------------------


    POTLOK:  cpu time    0.02: real time    0.02
    SETDIJ:  cpu time    0.01: real time    0.01
    EDDIAG:  cpu time    0.46: real time    0.47
  RMM-DIIS:  cpu time    1.59: real time    1.60
    ORTHCH:  cpu time    0.05: real time    0.05
       DOS:  cpu time    0.04: real time    0.04
    CHARGE:  cpu time    0.17: real time    0.17
    MIXING:  cpu time    0.00: real time    0.00
    --------------------------------------------
      LOOP:  cpu time    2.34: real time    2.37

 eigenvalue-minimisations  :  5976
 total energy-change (2. order) : 0.1045014E-01  (-0.4528565E-03)
 number of electron      40.0000072 magnetization       2.5673816
 augmentation part       24.6182323 magnetization       2.4524523

 Broyden mixing:
  rms(total) = 0.53142E-01    rms(broyden)= 0.53142E-01
  rms(prec ) = 0.78952E-01
  weight for this iteration     100.00

 eigenvalues of (default mixing * dielectric matrix)
  average eigenvalue GAMMA=   1.0414
  2.0992  0.7988  0.6704  0.5973

 Free energy of the ion-electron system (eV)
  ---------------------------------------------------
  alpha Z        PSCENC =       190.24554706
  Ewald energy   TEWEN  =     -3772.14891794
  -Hartree energ DENC   =      -890.45992260
  -exchange      EXHF   =         0.00000000
  -V(xc)+E(xc)   XCENC  =       123.13508218
  PAW double counting   =      4548.06252291    -4821.10297644
  entropy T*S    EENTRO =         0.00342712
  eigenvalues    EBANDS =       289.70585788
  atomic energy  EATOM  =      4310.69299218
  ---------------------------------------------------
  free energy    TOTEN  =       -21.86638766 eV

  energy without entropy =      -21.86981478  energy(sigma->0) =      -21.86753003


--------------------------------------------------------------------------------------------------------




----------------------------------------- Iteration    1(  10)  ---------------------------------------


    POTLOK:  cpu time    0.02: real time    0.02
    SETDIJ:  cpu time    0.01: real time    0.01
    EDDIAG:  cpu time    0.46: real time    0.47
  RMM-DIIS:  cpu time    1.60: real time    1.61
    ORTHCH:  cpu time    0.05: real time    0.06
       DOS:  cpu time    0.04: real time    0.04
    CHARGE:  cpu time    0.17: real time    0.17
    MIXING:  cpu time    0.00: real time    0.00
    --------------------------------------------
      LOOP:  cpu time    2.36: real time    2.38

 eigenvalue-minimisations  :  6043
 total energy-change (2. order) : 0.2203941E-02  (-0.9802891E-04)
 number of electron      40.0000072 magnetization       2.5645263
 augmentation part       24.6336794 magnetization       2.4454873

 Broyden mixing:
  rms(total) = 0.10687E-01    rms(broyden)= 0.10687E-01
  rms(prec ) = 0.18524E-01
  weight for this iteration     100.00

 eigenvalues of (default mixing * dielectric matrix)
  average eigenvalue GAMMA=   1.1472
  2.3279  1.2503  0.9167  0.6206  0.6206

 Free energy of the ion-electron system (eV)
  ---------------------------------------------------
  alpha Z        PSCENC =       190.24554706
  Ewald energy   TEWEN  =     -3772.14891794
  -Hartree energ DENC   =      -888.63757809
  -exchange      EXHF   =         0.00000000
  -V(xc)+E(xc)   XCENC  =       123.04599375
  PAW double counting   =      4587.80648370    -4862.10287419
  entropy T*S    EENTRO =         0.00336814
  eigenvalues    EBANDS =       289.23080169
  atomic energy  EATOM  =      4310.69299218
  ---------------------------------------------------
  free energy    TOTEN  =       -21.86418371 eV

  energy without entropy =      -21.86755185  energy(sigma->0) =      -21.86530643


--------------------------------------------------------------------------------------------------------




----------------------------------------- Iteration    1(  11)  ---------------------------------------


    POTLOK:  cpu time    0.02: real time    0.02
    SETDIJ:  cpu time    0.01: real time    0.01
    EDDIAG:  cpu time    0.46: real time    0.46
  RMM-DIIS:  cpu time    1.57: real time    1.60
    ORTHCH:  cpu time    0.05: real time    0.05
       DOS:  cpu time    0.04: real time    0.04
    CHARGE:  cpu time    0.17: real time    0.17
    MIXING:  cpu time    0.00: real time    0.00
    --------------------------------------------
      LOOP:  cpu time    2.33: real time    2.36

 eigenvalue-minimisations  :  5925
 total energy-change (2. order) : 0.1788187E-03  (-0.1661638E-04)
 number of electron      40.0000072 magnetization       2.5650412
 augmentation part       24.6375391 magnetization       2.4441065

 Broyden mixing:
  rms(total) = 0.65988E-02    rms(broyden)= 0.65988E-02
  rms(prec ) = 0.66733E-02
  weight for this iteration     100.00

 eigenvalues of (default mixing * dielectric matrix)
  average eigenvalue GAMMA=   1.1866
  2.3050  1.6943  0.9374  0.9374  0.6038  0.6419

 Free energy of the ion-electron system (eV)
  ---------------------------------------------------
  alpha Z        PSCENC =       190.24554706
  Ewald energy   TEWEN  =     -3772.14891794
  -Hartree energ DENC   =      -887.94661146
  -exchange      EXHF   =         0.00000000
  -V(xc)+E(xc)   XCENC  =       123.01305400
  PAW double counting   =      4603.68633336    -4878.51856827
  entropy T*S    EENTRO =         0.00334871
  eigenvalues    EBANDS =       289.10881747
  atomic energy  EATOM  =      4310.69299218
  ---------------------------------------------------
  free energy    TOTEN  =       -21.86400490 eV

  energy without entropy =      -21.86735361  energy(sigma->0) =      -21.86512113


--------------------------------------------------------------------------------------------------------




----------------------------------------- Iteration    1(  12)  ---------------------------------------


    POTLOK:  cpu time    0.02: real time    0.02
    SETDIJ:  cpu time    0.01: real time    0.01
    EDDIAG:  cpu time    0.66: real time    0.67
  RMM-DIIS:  cpu time    1.82: real time    1.84
    ORTHCH:  cpu time    0.05: real time    0.05
       DOS:  cpu time    0.04: real time    0.04
    CHARGE:  cpu time    0.17: real time    0.17
    MIXING:  cpu time    0.00: real time    0.00
    --------------------------------------------
      LOOP:  cpu time    2.78: real time    2.81

 eigenvalue-minimisations  :  6974
 total energy-change (2. order) :-0.5444368E-05  (-0.2010986E-05)
 number of electron      40.0000072 magnetization       2.5653624
 augmentation part       24.6381464 magnetization       2.4444787

 Broyden mixing:
  rms(total) = 0.16900E-02    rms(broyden)= 0.16900E-02
  rms(prec ) = 0.17133E-02
  weight for this iteration     100.00

 eigenvalues of (default mixing * dielectric matrix)
  average eigenvalue GAMMA=   1.2672
  2.5064  2.5064  1.0591  0.9384  0.6391  0.6106  0.6106

 Free energy of the ion-electron system (eV)
  ---------------------------------------------------
  alpha Z        PSCENC =       190.24554706
  Ewald energy   TEWEN  =     -3772.14891794
  -Hartree energ DENC   =      -887.99726024
  -exchange      EXHF   =         0.00000000
  -V(xc)+E(xc)   XCENC  =       123.01638820
  PAW double counting   =      4601.77736698    -4876.53918172
  entropy T*S    EENTRO =         0.00334221
  eigenvalues    EBANDS =       289.08571292
  atomic energy  EATOM  =      4310.69299218
  ---------------------------------------------------
  free energy    TOTEN  =       -21.86401034 eV

  energy without entropy =      -21.86735255  energy(sigma->0) =      -21.86512441


--------------------------------------------------------------------------------------------------------




----------------------------------------- Iteration    1(  13)  ---------------------------------------


    POTLOK:  cpu time    0.02: real time    0.03
    SETDIJ:  cpu time    0.01: real time    0.01
    EDDIAG:  cpu time    0.46: real time    0.46
  RMM-DIIS:  cpu time    1.44: real time    1.46
    ORTHCH:  cpu time    0.05: real time    0.05
       DOS:  cpu time    0.04: real time    0.04
    CHARGE:  cpu time    0.17: real time    0.17
    MIXING:  cpu time    0.00: real time    0.00
    --------------------------------------------
      LOOP:  cpu time    2.20: real time    2.22

 eigenvalue-minimisations  :  5368
 total energy-change (2. order) : 0.1992359E-05  (-0.1769778E-06)
 number of electron      40.0000072 magnetization       2.5656912
 augmentation part       24.6381708 magnetization       2.4449587

 Broyden mixing:
  rms(total) = 0.21689E-03    rms(broyden)= 0.21689E-03
  rms(prec ) = 0.23378E-03
  weight for this iteration     100.00

 eigenvalues of (default mixing * dielectric matrix)
  average eigenvalue GAMMA=   1.2222
  2.6258  2.4575  1.1019  0.9578  0.7673  0.6078  0.6297  0.6297

 Free energy of the ion-electron system (eV)
  ---------------------------------------------------
  alpha Z        PSCENC =       190.24554706
  Ewald energy   TEWEN  =     -3772.14891794
  -Hartree energ DENC   =      -888.01276241
  -exchange      EXHF   =         0.00000000
  -V(xc)+E(xc)   XCENC  =       123.01716914
  PAW double counting   =      4601.24152679    -4875.98379405
  entropy T*S    EENTRO =         0.00334154
  eigenvalues    EBANDS =       289.08088935
  atomic energy  EATOM  =      4310.69299218
  ---------------------------------------------------
  free energy    TOTEN  =       -21.86400835 eV

  energy without entropy =      -21.86734989  energy(sigma->0) =      -21.86512219


--------------------------------------------------------------------------------------------------------




----------------------------------------- Iteration    1(  14)  ---------------------------------------


    POTLOK:  cpu time    0.02: real time    0.02
    SETDIJ:  cpu time    0.01: real time    0.01
    EDDIAG:  cpu time    0.46: real time    0.46
  RMM-DIIS:  cpu time    0.97: real time    0.98
    ORTHCH:  cpu time    0.05: real time    0.05
       DOS:  cpu time    0.04: real time    0.04
    --------------------------------------------
      LOOP:  cpu time    1.56: real time    1.58

 eigenvalue-minimisations  :  3439
 total energy-change (2. order) : 0.8980351E-07  (-0.1596680E-07)
 number of electron      40.0000072 magnetization       2.5656912
 augmentation part       24.6381708 magnetization       2.4449587

 Free energy of the ion-electron system (eV)
  ---------------------------------------------------
  alpha Z        PSCENC =       190.24554706
  Ewald energy   TEWEN  =     -3772.14891794
  -Hartree energ DENC   =      -888.01275713
  -exchange      EXHF   =         0.00000000
  -V(xc)+E(xc)   XCENC  =       123.01728847
  PAW double counting   =      4601.17986226    -4875.91880005
  entropy T*S    EENTRO =         0.00334094
  eigenvalues    EBANDS =       289.07743595
  atomic energy  EATOM  =      4310.69299218
  ---------------------------------------------------
  free energy    TOTEN  =       -21.86400826 eV

  energy without entropy =      -21.86734920  energy(sigma->0) =      -21.86512191


--------------------------------------------------------------------------------------------------------




 average (electrostatic) potential at core
  the test charge radii are     0.9791
  (the norm of the test charge is              1.0000)
       1 -81.8271       2 -81.8271       3 -81.8271       4 -81.8271
 
 
 
 E-fermi :   9.5908     XC(G=0): -13.3415     alpha+bet :-16.7039


 spin component 1

 k-point     1 :       0.0000    0.0000    0.0000
  band No.  band energies     occupation 
      1       0.4701      1.00000
      2       4.8338      1.00000
      3       4.8338      1.00000
      4       4.8338      1.00000
      5       5.3070      1.00000
      6       5.3070      1.00000
      7       5.3070      1.00000
      8       7.1078      1.00000
      9       7.1078      1.00000
     10       7.1078      1.00000
     11       8.2896      1.00000
     12       8.2896      1.00000
     13       9.0125      1.00000
     14       9.0125      1.00000
     15       9.0125      1.00000
     16       9.1115      1.00000
     17       9.1115      1.00000
     18       9.1115      1.00000
     19       9.1115      1.00000
     20       9.1115      1.00000
     21       9.1115      1.00000
     22      12.0384     -0.00000
     23      12.0384     -0.00000
     24      12.0384     -0.00000
     25      18.9222      0.00000
     26      18.9222      0.00000

 k-point     2 :       0.0909    0.0000    0.0000
  band No.  band energies     occupation 
      1       0.5793      1.00000
      2       4.8424      1.00000
      3       4.8906      1.00000
      4       4.8906      1.00000
      5       5.3407      1.00000
      6       5.3442      1.00000
      7       5.3442      1.00000
      8       7.0681      1.00000
      9       7.1385      1.00000
     10       7.1385      1.00000
     11       8.2531      1.00000
     12       8.3038      1.00000
     13       8.8657      1.00000
     14       8.8657      1.00000
     15       8.9651      1.00000
     16       8.9651      1.00000
     17       8.9974      1.00000
     18       9.0565      1.00000
     19       9.0565      1.00000
     20       9.1116      1.00000
     21       9.1116      1.00000
     22      11.4736     -0.00000
     23      12.3754      0.00000
     24      12.3754      0.00000
     25      18.9481      0.00000
     26      18.9530      0.00000

 k-point     3 :       0.1818    0.0000    0.0000
  band No.  band energies     occupation 
      1       0.9031      1.00000
      2       4.8452      1.00000
      3       5.0517      1.00000
      4       5.0517      1.00000
      5       5.4394      1.00000
      6       5.4562      1.00000
      7       5.4562      1.00000
      8       6.9533      1.00000
      9       7.2298      1.00000
     10       7.2298      1.00000
     11       8.1487      1.00000
     12       8.3311      1.00000
     13       8.3311      1.00000
     14       8.3453      1.00000
     15       8.8286      1.00000
     16       8.8286      1.00000
     17       8.9009      1.00000
     18       8.9009      1.00000
     19       8.9534      1.00000
     20       9.1118      1.00000
     21       9.1118      1.00000
     22      10.2685     -0.00000
     23      13.1828      0.00000
     24      13.1828      0.00000
     25      19.0290      0.00000
     26      19.0290      0.00000

 k-point     4 :       0.2727    0.0000    0.0000
  band No.  band energies     occupation 
      1       1.4291      1.00000
      2       4.7604      1.00000
      3       5.2866      1.00000
      4       5.2866      1.00000
      5       5.5970      1.00000
      6       5.6443      1.00000
      7       5.6443      1.00000
      8       6.7746      1.00000
      9       7.3791      1.00000
     10       7.3791      1.00000
     11       7.7378      1.00000
     12       7.7378      1.00000
     13       7.9934      1.00000
     14       8.4111      1.00000
     15       8.6246      1.00000
     16       8.6246      1.00000
     17       8.6696      1.00000
     18       8.6696      1.00000
     19       8.8844      1.00000
     20       9.0383      1.00000
     21       9.1121      1.00000
     22       9.1121      1.00000
     23      14.2282      0.00000
     24      14.2282      0.00000
     25      19.1728      0.00000
     26      19.1728      0.00000

 k-point     5 :       0.3636    0.0000    0.0000
  band No.  band energies     occupation 
      1       2.1310      1.00000
      2       4.4381      1.00000
      3       5.5368      1.00000
      4       5.5368      1.00000
      5       5.8028      1.00000
      6       5.9100      1.00000
      7       5.9100      1.00000
      8       6.5494      1.00000
      9       7.1762      1.00000
     10       7.1762      1.00000
     11       7.5811      1.00000
     12       7.5811      1.00000
     13       7.8209      1.00000
     14       8.1422      1.00000
     15       8.3939      1.00000
     16       8.3939      1.00000
     17       8.4015      1.00000
     18       8.4015      1.00000
     19       8.4961      1.00000
     20       8.7964      1.00000
     21       9.1124      1.00000
     22       9.1124      1.00000
     23      15.4175      0.00000
     24      15.4175      0.00000
     25      19.4382      0.00000
     26      19.4737      0.00000

 k-point     6 :       0.4545    0.0000    0.0000
  band No.  band energies     occupation 
      1       2.9552      1.00000
      2       3.7893      1.00000
      3       5.7088      1.00000
      4       5.7088      1.00000
      5       6.0425      1.00000
      6       6.2546      1.00000
      7       6.2546      1.00000
      8       6.2982      1.00000
      9       6.6779      1.00000
     10       6.6779      1.00000
     11       7.6946      1.00000
     12       7.7358      1.00000
     13       7.8274      1.00000
     14       7.8274      1.00000
     15       8.1047      1.00000
     16       8.1047      1.00000
     17       8.2449      1.00000
     18       8.2449      1.00000
     19       8.5940      1.00000
     20       8.6968      1.00000
     21       9.1126      1.00000
     22       9.1126      1.00000
     23      16.7134      0.00000
     24      16.7134      0.00000
     25      18.0967      0.00000
     26      18.0967      0.00000

 k-point     7 :       0.0909    0.0909    0.0000
  band No.  band energies     occupation 
      1       0.6878      1.00000
      2       4.9005      1.00000
      3       4.9005      1.00000
      4       4.9456      1.00000
      5       5.3770      1.00000
      6       5.3770      1.00000
      7       5.3803      1.00000
      8       7.0459      1.00000
      9       7.1528      1.00000
     10       7.1658      1.00000
     11       8.2430      1.00000
     12       8.2951      1.00000
     13       8.6932      1.00000
     14       8.7762      1.00000
     15       8.7762      1.00000
     16       8.9202      1.00000
     17       8.9709      1.00000
     18       8.9709      1.00000
     19       9.0564      1.00000
     20       9.0564      1.00000
     21       9.0765      1.00000
     22      11.8104     -0.00000
     23      11.8104     -0.00000
     24      12.6745      0.00000
     25      18.9721      0.00000
     26      19.7170      0.00000

 k-point     8 :       0.1818    0.0909    0.0000
  band No.  band energies     occupation 
      1       1.0094      1.00000
      2       4.9071      1.00000
      3       5.0654      1.00000
      4       5.1017      1.00000
      5       5.4735      1.00000
      6       5.4866      1.00000
      7       5.4887      1.00000
      8       6.9431      1.00000
      9       7.2352      1.00000
     10       7.2460      1.00000
     11       8.1533      1.00000
     12       8.2355      1.00000
     13       8.2356      1.00000
     14       8.3334      1.00000
     15       8.5546      1.00000
     16       8.7905      1.00000
     17       8.8345      1.00000
     18       8.9005      1.00000
     19       8.9401      1.00000
     20       9.0562      1.00000
     21       9.0575      1.00000
     22      10.6427     -0.00000
     23      12.5809      0.00000
     24      13.4248      0.00000
     25      19.0327      0.00000
     26      19.8413      0.00000

 k-point     9 :       0.2727    0.0909    0.0000
  band No.  band energies     occupation 
      1       1.5316      1.00000
      2       4.8284      1.00000
      3       5.3070      1.00000
      4       5.3308      1.00000
      5       5.6272      1.00000
      6       5.6681      1.00000
      7       5.6704      1.00000
      8       6.7719      1.00000
      9       7.3709      1.00000
     10       7.3817      1.00000
     11       7.6493      1.00000
     12       7.6884      1.00000
     13       8.0143      1.00000
     14       8.2032      1.00000
     15       8.4077      1.00000
     16       8.5959      1.00000
     17       8.6328      1.00000
     18       8.6688      1.00000
     19       8.8531      1.00000
     20       9.0531      1.00000
     21       9.0557      1.00000
     22       9.5445      0.84950
     23      13.5404      0.00000
     24      14.4300      0.00000
     25      19.0054      0.00000
     26      19.8955      0.00000

 k-point    10 :       0.3636    0.0909    0.0000
  band No.  band energies     occupation 
      1       2.2279      1.00000
      2       4.5126      1.00000
      3       5.5670      1.00000
      4       5.5813      1.00000
      5       5.8279      1.00000
      6       5.9129      1.00000
      7       5.9298      1.00000
      8       6.5539      1.00000
      9       7.1022      1.00000
     10       7.1553      1.00000
     11       7.5005      1.00000
     12       7.5823      1.00000
     13       7.7815      1.00000
     14       7.9021      1.00000
     15       8.3833      1.00000
     16       8.3931      1.00000
     17       8.4098      1.00000
     18       8.5054      1.00000
     19       8.6234      1.00000
     20       8.9360      1.00000
     21       9.0526      1.00000
     22       9.0550      1.00000
     23      14.5996      0.00000
     24      15.5932      0.00000
     25      18.1199      0.00000
     26      19.6908      0.00000

 k-point    11 :       0.4545    0.0909    0.0000
  band No.  band energies     occupation 
      1       3.0447      1.00000
      2       3.8708      1.00000
      3       5.7509      1.00000
      4       5.7575      1.00000
      5       6.0614      1.00000
      6       6.2258      1.00000
      7       6.2654      1.00000
      8       6.3100      1.00000
      9       6.6229      1.00000
     10       6.6758      1.00000
     11       7.5197      1.00000
     12       7.5398      1.00000
     13       7.8276      1.00000
     14       7.9868      1.00000
     15       8.1042      1.00000
     16       8.2377      1.00000
     17       8.2480      1.00000
     18       8.2595      1.00000
     19       8.6197      1.00000
     20       8.7479      1.00000
     21       9.0532      1.00000
     22       9.0541      1.00000
     23      15.7256      0.00000
     24      16.8721      0.00000
     25      16.9060      0.00000
     26      18.2442      0.00000

 k-point    12 :       0.1818    0.1818    0.0000
  band No.  band energies     occupation 
      1       1.3242      1.00000
      2       5.0837      1.00000
      3       5.0837      1.00000
      4       5.2430      1.00000
      5       5.5758      1.00000
      6       5.5758      1.00000
      7       5.5860      1.00000
      8       6.8831      1.00000
      9       7.2836      1.00000
     10       7.2928      1.00000
     11       7.9490      1.00000
     12       7.9867      1.00000
     13       7.9867      1.00000
     14       8.1217      1.00000
     15       8.3479      1.00000
     16       8.6795      1.00000
     17       8.8177      1.00000
     18       8.8177      1.00000
     19       8.8992      1.00000
     20       8.8992      1.00000
     21       8.9727      1.00000
     22      11.3808     -0.00000
     23      11.3808     -0.00000
     24      14.0721      0.00000
     25      18.8507      0.00000
     26      19.7916      0.00000

 k-point    13 :       0.2727    0.1818    0.0000
  band No.  band energies     occupation 
      1       1.8345      1.00000
      2       5.0231      1.00000
      3       5.3454      1.00000
      4       5.4526      1.00000
      5       5.7177      1.00000
      6       5.7426      1.00000
      7       5.7470      1.00000
      8       6.7492      1.00000
      9       7.3575      1.00000
     10       7.4063      1.00000
     11       7.4241      1.00000
     12       7.5355      1.00000
     13       7.6520      1.00000
     14       8.0274      1.00000
     15       8.4392      1.00000
     16       8.5104      1.00000
     17       8.6262      1.00000
     18       8.6668      1.00000
     19       8.7366      1.00000
     20       8.8973      1.00000
     21       8.9240      1.00000
     22      10.2434     -0.00000
     23      12.2342     -0.00000
     24      14.9913      0.00000
     25      17.7262      0.00000
     26      19.5919      0.00000

 k-point    14 :       0.3636    0.1818    0.0000
  band No.  band energies     occupation 
      1       2.5131      1.00000
      2       4.7266      1.00000
      3       5.6356      1.00000
      4       5.6998      1.00000
      5       5.9024      1.00000
      6       5.9312      1.00000
      7       5.9874      1.00000
      8       6.5605      1.00000
      9       6.9171      1.00000
     10       7.0891      1.00000
     11       7.3612      1.00000
     12       7.3885      1.00000
     13       7.5943      1.00000
     14       7.9720      1.00000
     15       8.3250      1.00000
     16       8.3915      1.00000
     17       8.4082      1.00000
     18       8.5634      1.00000
     19       8.5804      1.00000
     20       8.8953      1.00000
     21       8.9030      1.00000
     22       9.4481      1.03072
     23      13.1557      0.00000
     24      16.0930      0.00000
     25      16.4186      0.00000
     26      19.8468      0.00000

 k-point    15 :       0.4545    0.1818    0.0000
  band No.  band energies     occupation 
      1       3.3065      1.00000
      2       4.1065      1.00000
      3       5.8604      1.00000
      4       5.8969      1.00000
      5       6.1162      1.00000
      6       6.1454      1.00000
      7       6.2956      1.00000
      8       6.3421      1.00000
      9       6.4827      1.00000
     10       6.6668      1.00000
     11       7.2657      1.00000
     12       7.3269      1.00000
     13       7.8324      1.00000
     14       8.0733      1.00000
     15       8.1048      1.00000
     16       8.2062      1.00000
     17       8.2384      1.00000
     18       8.3070      1.00000
     19       8.7613      1.00000
     20       8.8941      1.00000
     21       8.8955      1.00000
     22       9.0105      1.00000
     23      14.1458      0.00000
     24      15.2247      0.00000
     25      17.3289      0.00000
     26      18.6721      0.00000

 k-point    16 :       0.2727    0.2727    0.0000
  band No.  band energies     occupation 
      1       2.3235      1.00000
      2       5.3148      1.00000
      3       5.3148      1.00000
      4       5.6240      1.00000
      5       5.8682      1.00000
      6       5.8682      1.00000
      7       5.8691      1.00000
      8       6.6781      1.00000
      9       7.1570      1.00000
     10       7.1570      1.00000
     11       7.2843      1.00000
     12       7.3466      1.00000
     13       7.4871      1.00000
     14       7.9736      1.00000
     15       8.3751      1.00000
     16       8.5573      1.00000
     17       8.5573      1.00000
     18       8.5680      1.00000
     19       8.6646      1.00000
     20       8.6646      1.00000
     21       8.8045      1.00000
     22      10.9929     -0.00000
     23      10.9929     -0.00000
     24      15.8246      0.00000
     25      16.2123      0.00000
     26      19.7841      0.00000

 k-point    17 :       0.3636    0.2727    0.0000
  band No.  band energies     occupation 
      1       2.9697      1.00000
      2       5.0477      1.00000
      3       5.6472      1.00000
      4       5.8237      1.00000
      5       6.0129      1.00000
      6       6.0243      1.00000
      7       6.0769      1.00000
      8       6.5507      1.00000
      9       6.7291      1.00000
     10       6.9711      1.00000
     11       6.9988      1.00000
     12       7.3035      1.00000
     13       7.6398      1.00000
     14       7.9294      1.00000
     15       8.2227      1.00000
     16       8.3498      1.00000
     17       8.3923      1.00000
     18       8.4036      1.00000
     19       8.6645      1.00000
     20       8.7279      1.00000
     21       8.7770      1.00000
     22      10.0509     -0.00000
     23      11.7980     -0.00000
     24      14.8597      0.00000
     25      16.8563      0.00000
     26      20.1326      0.00000

 k-point    18 :       0.4545    0.2727    0.0000
  band No.  band energies     occupation 
      1       3.7182      1.00000
      2       4.4670      1.00000
      3       5.9280      1.00000
      4       6.0238      1.00000
      5       6.1079      1.00000
      6       6.2020      1.00000
      7       6.3390      1.00000
      8       6.3717      1.00000
      9       6.3843      1.00000
     10       6.6440      1.00000
     11       7.0377      1.00000
     12       7.1817      1.00000
     13       7.8548      1.00000
     14       8.0040      1.00000
     15       8.1132      1.00000
     16       8.1308      1.00000
     17       8.1794      1.00000
     18       8.1909      1.00000
     19       8.6701      1.00000
     20       8.6878      1.00000
     21       9.0531      1.00000
     22       9.4402      1.02737
     23      12.6844      0.00000
     24      13.6914      0.00000
     25      18.0391      0.00000
     26      19.3445      0.00000

 k-point    19 :       0.3636    0.3636    0.0000
  band No.  band energies     occupation 
      1       3.5641      1.00000
      2       5.4126      1.00000
      3       5.4126      1.00000
      4       5.8757      1.00000
      5       6.1856      1.00000
      6       6.1886      1.00000
      7       6.1886      1.00000
      8       6.5054      1.00000
      9       6.7103      1.00000
     10       6.7103      1.00000
     11       6.8020      1.00000
     12       7.2197      1.00000
     13       7.7434      1.00000
     14       7.8570      1.00000
[...]
     20       9.5820      0.57467
     21      10.2196     -0.00000
     22      10.8153     -0.00000
     23      10.8153     -0.00000
     24      11.4164     -0.00000
     25      16.4510      0.00000
     26      17.2303      0.00000

 k-point    53 :       0.3636    0.3636    0.3636
  band No.  band energies     occupation 
      1       4.4377      1.00000
      2       5.4576      1.00000
      3       5.4576      1.00000
      4       5.4576      1.00000
      5       7.3148      1.00000
      6       7.3148      1.00000
      7       7.3148      1.00000
      8       7.8040      1.00000
      9       7.8744      1.00000
     10       7.8744      1.00000
     11       7.9557      1.00000
     12       7.9557      1.00000
     13       7.9557      1.00000
     14       8.0564      1.00000
     15       8.0564      1.00000
     16       8.0564      1.00000
     17       9.4726      1.03516
     18       9.4726      1.03516
     19       9.7620     -0.01805
     20       9.7620     -0.01805
     21       9.7620     -0.01805
     22      11.3192     -0.00000
     23      11.3192     -0.00000
     24      11.3192     -0.00000
     25      16.4335      0.00000
     26      16.4335      0.00000

 k-point    54 :       0.4545    0.3636    0.3636
  band No.  band energies     occupation 
      1       4.7853      1.00000
      2       5.1271      1.00000
      3       5.4212      1.00000
      4       5.4212      1.00000
      5       7.4279      1.00000
      6       7.4279      1.00000
      7       7.5807      1.00000
      8       7.7736      1.00000
      9       7.8702      1.00000
     10       7.9327      1.00000
     11       7.9754      1.00000
     12       7.9754      1.00000
     13       8.0292      1.00000
     14       8.0539      1.00000
     15       8.1459      1.00000
     16       8.1459      1.00000
     17       9.6372      0.15028
     18       9.6722      0.00663
     19       9.7227     -0.03426
     20       9.7227     -0.03426
     21       9.7365     -0.02954
     22      10.3216     -0.00000
     23      11.3483     -0.00000
     24      11.3483     -0.00000
     25      15.9088      0.00000
     26      15.9088      0.00000

 k-point    55 :       0.4545    0.4545    0.3636
  band No.  band energies     occupation 
      1       4.9782      1.00000
      2       5.1878      1.00000
      3       5.1878      1.00000
      4       5.2838      1.00000
      5       7.5791      1.00000
      6       7.6337      1.00000
      7       7.6337      1.00000
      8       7.7599      1.00000
      9       7.8213      1.00000
     10       7.8655      1.00000
     11       7.8655      1.00000
     12       7.8797      1.00000
     13       8.3676      1.00000
     14       8.3676      1.00000
     15       8.3725      1.00000
     16       8.3901      1.00000
     17       9.5976      0.44311
     18       9.6946     -0.02858
     19       9.6946     -0.02858
     20       9.7000     -0.03221
     21       9.9352     -0.00001
     22      10.4954     -0.00000
     23      10.4954     -0.00000
     24      10.8733     -0.00000
     25      15.8727      0.00000
     26      16.3069      0.00000

 k-point    56 :       0.4545    0.4545    0.4545
  band No.  band energies     occupation 
      1       5.0376      1.00000
      2       5.1377      1.00000
      3       5.1377      1.00000
      4       5.1377      1.00000
      5       7.7126      1.00000
      6       7.7126      1.00000
      7       7.7126      1.00000
      8       7.7725      1.00000
      9       7.7725      1.00000
     10       7.7926      1.00000
     11       7.7926      1.00000
     12       7.7926      1.00000
     13       8.8205      1.00000
     14       8.8205      1.00000
     15       8.8205      1.00000
     16       8.9283      1.00000
     17       9.7098     -0.03526
     18       9.7098     -0.03526
     19       9.7450     -0.02578
     20       9.7450     -0.02578
     21       9.7450     -0.02578
     22      10.1617     -0.00000
     23      10.1617     -0.00000
     24      10.1617     -0.00000
     25      15.8329      0.00000
     26      15.8420      0.00000


--------------------------------------------------------------------------------------------------------


 soft charge-density along one line, spin component           1
         0         1         2         3         4         5         6         7         8         9
 total charge-density along one line
 
 soft charge-density along one line, spin component           2
         0         1         2         3         4         5         6         7         8         9
 total charge-density along one line
 
 pseudopotential strength for first ion, spin component:           1
 -0.469   0.000  -0.000   0.000  -0.000  -1.151   0.000  -0.000
  0.000  -0.469   0.000   0.000  -0.000   0.000  -1.151   0.000
 -0.000   0.000  -0.366   0.000  -0.000  -0.000   0.000  -1.052
  0.000   0.000   0.000  -0.469   0.000   0.000   0.000   0.000
 -0.000  -0.000  -0.000   0.000  -0.366  -0.000  -0.000  -0.000
 -1.151   0.000  -0.000   0.000  -0.000  -1.761   0.000  -0.000
  0.000  -1.151   0.000   0.000  -0.000   0.000  -1.761   0.000
 -0.000   0.000  -1.052   0.000  -0.000  -0.000   0.000  -1.666
  0.000   0.000   0.000  -1.151   0.000   0.000   0.000   0.000
 -0.000  -0.000  -0.000   0.000  -1.052  -0.000  -0.000  -0.000
 -0.000  -0.000   0.000  -0.000  -0.000  -0.000  -0.000   0.000
 -0.000  -0.000   0.000  -0.000  -0.000  -0.000  -0.000   0.000
 -0.000  -0.000   0.000  -0.000   0.000  -0.000  -0.000   0.000
 -0.000  -0.000  -0.000  -0.000   0.000  -0.000  -0.000  -0.000
 -0.000  -0.000   0.000  -0.000  -0.000  -0.000  -0.000   0.000
 -0.000  -0.000   0.000  -0.000   0.000  -0.000  -0.000   0.000
 -0.000  -0.000  -0.000  -0.000   0.000  -0.000  -0.000  -0.000
 -0.000  -0.000   0.000  -0.000  -0.000  -0.000  -0.000   0.000
 pseudopotential strength for first ion, spin component:           2
  0.170   0.000  -0.000   0.000   0.000  -0.541   0.000  -0.000
  0.000   0.170   0.000   0.000  -0.000   0.000  -0.541   0.000
 -0.000   0.000   0.145   0.000  -0.000  -0.000   0.000  -0.566
  0.000   0.000   0.000   0.170   0.000   0.000   0.000   0.000
  0.000  -0.000  -0.000   0.000   0.145   0.000  -0.000  -0.000
 -0.541   0.000  -0.000   0.000   0.000  -1.180   0.000  -0.000
  0.000  -0.541   0.000   0.000  -0.000   0.000  -1.180   0.000
 -0.000   0.000  -0.566   0.000  -0.000  -0.000   0.000  -1.204
  0.000   0.000   0.000  -0.541   0.000   0.000   0.000   0.000
  0.000  -0.000  -0.000   0.000  -0.566   0.000  -0.000  -0.000
 -0.000  -0.000   0.000  -0.000  -0.000  -0.000  -0.000   0.000
 -0.000  -0.000   0.000  -0.000  -0.000  -0.000  -0.000   0.000
 -0.000  -0.000   0.000  -0.000   0.000  -0.000  -0.000   0.000
 -0.000  -0.000  -0.000  -0.000   0.000  -0.000  -0.000  -0.000
 -0.000  -0.000   0.000  -0.000  -0.000  -0.000  -0.000   0.000
 -0.000  -0.000   0.000  -0.000   0.000  -0.000  -0.000   0.000
 -0.000  -0.000  -0.000  -0.000   0.000  -0.000  -0.000  -0.000
 -0.000  -0.000   0.000  -0.000  -0.000  -0.000  -0.000   0.000
 total augmentation occupancy for first ion, spin component:           1
  2.774  -0.000   0.000  -0.000   0.000  -1.298   0.000   0.000  -0.000   0.000   0.000  -0.000   0.000  -0.000  -0.000  -0.000
  0.000   2.774   0.000  -0.000   0.000  -0.000  -1.298  -0.000  -0.000  -0.000   0.000   0.000   0.000   0.000   0.000   0.000
  0.000  -0.000   3.538  -0.000   0.000  -0.000  -0.000  -1.634   0.000   0.000  -0.000   0.000   0.000  -0.000  -0.000   0.000
  0.000  -0.000  -0.000   2.774  -0.000  -0.000   0.000  -0.000  -1.298   0.000  -0.000   0.000   0.000   0.000  -0.000   0.000
 -0.000   0.000   0.000  -0.000   3.538  -0.000   0.000   0.000  -0.000  -1.634  -0.000   0.000  -0.000  -0.000   0.000   0.000
 -1.298   0.000  -0.000  -0.000  -0.000   1.530   0.000   0.000   0.000   0.000  -0.000  -0.000   0.000   0.000  -0.000   0.000
  0.000  -1.298  -0.000  -0.000   0.000  -0.000   1.530  -0.000   0.000   0.000  -0.000  -0.000  -0.000   0.000  -0.000  -0.000
 -0.000  -0.000  -1.634  -0.000   0.000   0.000  -0.000   1.558  -0.000  -0.000  -0.000  -0.000  -0.000  -0.000  -0.000  -0.000
 -0.000  -0.000   0.000  -1.298  -0.000   0.000   0.000   0.000   1.530  -0.000  -0.000   0.000   0.000   0.000   0.000   0.000
 -0.000  -0.000   0.000   0.000  -1.634   0.000   0.000  -0.000  -0.000   1.558  -0.000   0.000   0.000  -0.000  -0.000  -0.000
  0.000   0.000  -0.000  -0.000  -0.000  -0.000  -0.000  -0.000  -0.000   0.000   2.338  -0.326   0.000   0.000   0.000   0.000
 -0.000   0.000   0.000   0.000   0.000  -0.000  -0.000  -0.000   0.000   0.000  -0.326   0.053   0.000   0.000   0.000   0.000
  0.000   0.000  -0.000   0.000   0.000   0.000  -0.000   0.000   0.000  -0.000   0.000   0.000   0.313   0.000   0.000  -0.034
 -0.000   0.000   0.000   0.000  -0.000   0.000   0.000   0.000   0.000   0.000   0.000   0.000  -0.000   0.313  -0.000   0.000
 -0.000   0.000  -0.000  -0.000   0.000  -0.000  -0.000  -0.000   0.000  -0.000   0.000   0.000   0.000  -0.000   0.313  -0.000
 -0.000   0.000  -0.000   0.000  -0.000   0.000  -0.000  -0.000   0.000   0.000   0.000   0.000  -0.034   0.000   0.000   0.004
  0.000  -0.000   0.000   0.000   0.000  -0.000   0.000   0.000   0.000   0.000   0.000   0.000  -0.000  -0.034  -0.000   0.000
 -0.000   0.000   0.000  -0.000  -0.000   0.000  -0.000  -0.000  -0.000  -0.000   0.000   0.000   0.000   0.000  -0.034   0.000
 total augmentation occupancy for first ion, spin component:           2
  1.078  -0.000  -0.000  -0.000   0.000  -0.540   0.000   0.000   0.000   0.000  -0.000  -0.000  -0.000   0.000   0.000   0.000
 -0.000   1.078   0.000  -0.000  -0.000  -0.000  -0.540   0.000   0.000   0.000  -0.000  -0.000   0.000  -0.000  -0.000  -0.000
 -0.000   0.000   0.626   0.000   0.000   0.000  -0.000  -0.312  -0.000   0.000  -0.000   0.000   0.000   0.000   0.000   0.000
 -0.000  -0.000   0.000   1.078   0.000  -0.000   0.000   0.000  -0.540  -0.000  -0.000   0.000  -0.000  -0.000  -0.000  -0.000
  0.000  -0.000   0.000   0.000   0.626   0.000  -0.000  -0.000  -0.000  -0.312   0.000  -0.000   0.000  -0.000   0.000   0.000
 -0.540  -0.000  -0.000  -0.000  -0.000   0.183  -0.000  -0.000   0.000   0.000   0.000   0.000  -0.000  -0.000  -0.000   0.000
  0.000  -0.540   0.000  -0.000  -0.000  -0.000   0.183  -0.000  -0.000  -0.000   0.000  -0.000  -0.000  -0.000   0.000   0.000
  0.000   0.000  -0.312   0.000   0.000  -0.000  -0.000   0.090  -0.000   0.000  -0.000   0.000   0.000   0.000   0.000   0.000
  0.000   0.000  -0.000  -0.540  -0.000  -0.000   0.000   0.000   0.183   0.000  -0.000   0.000   0.000   0.000   0.000  -0.000
  0.000   0.000  -0.000  -0.000  -0.312  -0.000  -0.000  -0.000   0.000   0.090   0.000  -0.000  -0.000   0.000   0.000   0.000
 -0.000  -0.000  -0.000   0.000   0.000   0.000   0.000  -0.000  -0.000  -0.000  -0.134   0.044   0.000   0.000   0.000   0.000
 -0.000  -0.000   0.000  -0.000  -0.000  -0.000  -0.000  -0.000   0.000   0.000   0.044  -0.009   0.000   0.000   0.000   0.000
 -0.000   0.000   0.000  -0.000   0.000  -0.000  -0.000  -0.000   0.000   0.000   0.000   0.000  -0.017   0.000   0.000   0.003
  0.000  -0.000  -0.000  -0.000   0.000  -0.000  -0.000   0.000   0.000  -0.000   0.000   0.000  -0.000  -0.017   0.000  -0.000
  0.000  -0.000   0.000  -0.000   0.000  -0.000   0.000   0.000   0.000  -0.000   0.000   0.000   0.000   0.000  -0.017   0.000
  0.000  -0.000   0.000  -0.000   0.000   0.000   0.000   0.000  -0.000   0.000   0.000   0.000   0.003  -0.000   0.000  -0.000
  0.000   0.000  -0.000  -0.000   0.000   0.000  -0.000   0.000   0.000   0.000   0.000   0.000   0.000   0.003   0.000  -0.000
  0.000   0.000   0.000   0.000   0.000  -0.000   0.000   0.000  -0.000  -0.000   0.000   0.000   0.000   0.000   0.003  -0.000


------------------------ aborting loop because EDIFF is reached ----------------------------------------


 


 total charge     
 
# of ion     s       p       d       tot
----------------------------------------
  1        0.504   0.511   8.321   9.336
  2        0.504   0.511   8.321   9.336
  3        0.504   0.511   8.321   9.336
  4        0.504   0.511   8.321   9.336
------------------------------------------------
tot        2.017   2.043  33.283  37.344
 


 magnetization (x)
 
# of ion     s       p       d       tot
----------------------------------------
  1       -0.005  -0.025   0.682   0.652
  2       -0.005  -0.025   0.682   0.652
  3       -0.005  -0.025   0.682   0.652
  4       -0.005  -0.025   0.682   0.652
------------------------------------------------
tot       -0.022  -0.100   2.730   2.608
 
    CHARGE:  cpu time    0.17: real time    0.17
    FORLOC:  cpu time    0.00: real time    0.00
    FORNL :  cpu time    0.78: real time    0.79
    STRESS:  cpu time    2.36: real time    2.38
    FORCOR:  cpu time    0.02: real time    0.02
    FORHAR:  cpu time    0.00: real time    0.00
    MIXING:  cpu time    0.00: real time    0.00
    OFIELD:  cpu time    0.00: real time    0.00

  DFT-D2 method for vdW energy calculation
  -------------------------------------------------------------------

  Parameters of vdW forcefield:
         C6(Jnm^6/mol)     R0(A)
   -----------------------------
   Ni       2.626          1.562

  IVDW =   1
  VDW_RADIUS =    40.000 A
  VDW_S6 =     0.750
  VDW_SR =     1.000
  VDW_D =    20.000
  LVDW_EWALD = F

  Number of pair interactions contributing to vdW energy:   62472
  Edisp (eV):   -0.45733
    FORVDW:  cpu time    0.01: real time    0.01

  FORCE on cell =-STRESS in cart. coord.  units (eV):
  Direction    XX          YY          ZZ          XY          YZ          ZX
  --------------------------------------------------------------------------------------
  Alpha Z   190.24555   190.24555   190.24555
  Ewald   -1257.38353 -1257.38353 -1257.38353     0.00000    -0.00000    -0.00000
  Hartree   296.00608   296.00608   296.00608    -0.00000    -0.00000    -0.00000
  E(xc)    -220.36975  -220.36975  -220.36975    -0.00000    -0.00000    -0.00000
  Local       5.42688     5.42688     5.42688    -0.00000    -0.00000    -0.00000
  n-local   -27.04207   -34.02814   -29.07467     5.50356     3.15785     2.72161
  augment   704.04734   704.04734   704.04734     0.00000     0.00000     0.00000
  Kinetic   320.19763   311.08849   307.17712     1.97210     1.40742     0.76291
  Fock        0.00000     0.00000     0.00000     0.00000     0.00000     0.00000
  vdW        -0.66727    -0.66727    -0.66727    -0.00000     0.00000     0.00000
  -------------------------------------------------------------------------------------
  Total       0.07810     0.07810     0.07810    -0.00000     0.00000     0.00000
  in kB       2.91719     2.91719     2.91719    -0.00000     0.00000     0.00000
  external pressure =        2.92 kB  Pullay stress =        0.00 kB


 VOLUME and BASIS-vectors are now :
 -----------------------------------------------------------------------------
  energy-cutoff  :      700.00
  volume of cell :       42.89
      direct lattice vectors                 reciprocal lattice vectors
     3.500447103  0.000000000  0.000000000     0.285677792  0.000000000  0.000000000
     0.000000000  3.500447103  0.000000000     0.000000000  0.285677792  0.000000000
     0.000000000  0.000000000  3.500447103     0.000000000  0.000000000  0.285677792

  length of vectors
     3.500447103  3.500447103  3.500447103     0.285677792  0.285677792  0.285677792


 FORCES acting on ions
    electron-ion (+dipol)            ewald-force                    non-local-force                 convergence-correction
 -----------------------------------------------------------------------------------------------
   -.105E-06 -.105E-06 -.105E-06   0.171E-06 0.171E-06 0.171E-06   -.827E-24 -.455E-23 -.290E-23   -.353E-09 -.353E-09 -.353E-09
   -.105E-06 0.108E-06 0.108E-06   0.171E-06 -.171E-06 -.171E-06   -.248E-23 0.331E-23 0.000E+00   -.353E-09 0.362E-09 0.362E-09
   0.108E-06 -.105E-06 0.108E-06   -.171E-06 0.171E-06 -.171E-06   0.827E-24 -.620E-23 0.248E-23   0.362E-09 -.353E-09 0.362E-09
   0.108E-06 0.108E-06 -.105E-06   -.171E-06 -.171E-06 0.171E-06   0.414E-23 0.827E-24 -.165E-23   0.362E-09 0.362E-09 -.353E-09
 -----------------------------------------------------------------------------------------------
   0.627E-08 0.628E-08 0.629E-08   -.875E-15 0.457E-15 0.190E-14   0.165E-23 -.662E-23 -.207E-23   0.183E-10 0.183E-10 0.188E-10
 
 
 POSITION                                       TOTAL-FORCE (eV/Angst)
 -----------------------------------------------------------------------------------
      0.00000      0.00000      0.00000         0.000000      0.000000      0.000000
      0.00000      1.75022      1.75022         0.000000      0.000000     -0.000000
      1.75022      0.00000      1.75022         0.000000      0.000000     -0.000000
      1.75022      1.75022      0.00000         0.000000      0.000000      0.000000
 -----------------------------------------------------------------------------------
    total drift:                                0.000000      0.000000      0.000000


--------------------------------------------------------------------------------------------------------



  FREE ENERGIE OF THE ION-ELECTRON SYSTEM (eV)
  ---------------------------------------------------
  free  energy   TOTEN  =       -22.32134165 eV

  energy  without entropy=      -22.32468259  energy(sigma->0) =      -22.32245530
 


--------------------------------------------------------------------------------------------------------


    POTLOK:  cpu time    0.04: real time    0.04


--------------------------------------------------------------------------------------------------------


 Quasi-Newton relaxation of ions (Broydens 2nd method)
  g(Force)  = 0.103E-51   g(Stress)= 0.441E-04

 Reset! Starting new Quasi-Newton update for ions 


--------------------------------------------------------------------------------------------------------


  
 reached required accuracy - stopping structural energy minimisation
 writing wavefunctions
     LOOP+:  cpu time   39.42: real time   41.52
    4ORBIT:  cpu time    0.00: real time    0.00
 


 total charge     
 
# of ion     s       p       d       tot
----------------------------------------
  1        0.504   0.511   8.321   9.336
  2        0.504   0.511   8.321   9.336
  3        0.504   0.511   8.321   9.336
  4        0.504   0.511   8.321   9.336
------------------------------------------------
tot        2.017   2.043  33.283  37.344
 


 magnetization (x)
 
# of ion     s       p       d       tot
----------------------------------------
  1       -0.005  -0.025   0.682   0.652
  2       -0.005  -0.025   0.682   0.652
  3       -0.005  -0.025   0.682   0.652
  4       -0.005  -0.025   0.682   0.652
------------------------------------------------
tot       -0.022  -0.100   2.730   2.608
 

 total amount of memory used by VASP on root node    39455. kBytes
========================================================================

   base      :      30000. kBytes
   nonlr-proj:        569. kBytes
   fftplans  :        389. kBytes
   grid      :        872. kBytes
   one-center:         31. kBytes
   wavefun   :       7594. kBytes
 
  
  
 General timing and accounting informations for this job:
 ========================================================
  
                  Total CPU time used (sec):       42.225
                            User time (sec):       41.608
                          System time (sec):        0.617
                         Elapsed time (sec):       47.132
  
                   Maximum memory used (kb):       48512.
                   Average memory used (kb):           0.
  
                          Minor page faults:        17937
                          Major page faults:            6
                 Voluntary context switches:         1563
