<?xml version="1.0" encoding="ISO-8859-1"?>
<modeling>
 <generator>
  <i name="program" type="string">vasp </i>
  <i name="version" type="string">6.4.3  </i>
  <i name="subversion" type="string">19Mar24 (build Sep 26 2024 17:48:06) gamma-only                       parallel </i>
  <i name="platform" type="string">LinuxIFC </i>
  <i name="date" type="string">2025 01 10 </i>
  <i name="time" type="string">17:34:57 </i>
 </generator>
 <incar>
  <i type="string" name="SYSTEM">Generated By Q_robot</i>
  <i type="int" name="ISTART">     1</i>
  <i type="string" name="PREC">A</i>
  <i type="string" name="ALGO">F</i>
  <i type="int" name="ISPIN">     2</i>
  <i type="int" name="NELM">   200</i>
  <i type="int" name="IBRION">     2</i>
  <i name="EDIFF">      0.00001000</i>
  <i name="EDIFFG">     -0.05000000</i>
  <i type="int" name="NSW">   500</i>
  <i type="int" name="ISIF">     2</i>
  <i type="int" name="ISYM">     2</i>
  <i name="ENCUT">    450.00000000</i>
  <i name="POTIM">      0.10000000</i>
  <i type="string" name="LREAL">AUTO</i>
  <i type="int" name="ISMEAR">     0</i>
  <i name="SIGMA">      0.05000000</i>
  <i type="int" name="NWRITE">     0</i>
  <i type="logical" name="LWAVE"> T  </i>
  <i type="logical" name="LCHARG"> F  </i>
  <i type="logical" name="LVHAR"> F  </i>
  <i type="int" name="LORBIT">    11</i>
  <i type="logical" name="LSCALAPACK"> F  </i>
  <i type="logical" name="LAECHG"> F  </i>
  <i type="string" name="GGA">PE</i>
  <i type="logical" name="ML_LMLFF"> T  </i>
  <i type="string" name="ML_MODE">train</i>
  <i name="ML_SCLC_CTIFOR">      0.50000000</i>
  <i type="int" name="ML_ICRITERIA">     0</i>
  <i type="int" name="ML_IERR">     1</i>
  <i name="ML_CTIFOR">      0.02000000</i>
  <i type="int" name="ML_OUTPUT_MODE">     1</i>
  <i type="int" name="ML_MB">  4000</i>
  <i type="int" name="IVDW">    11</i>
 </incar>
 <primitive_cell>
  <structure name="primitive_cell" >
   <crystal>
    <varray name="basis" >
     <v>      20.00000000       0.00000000       0.00000000 </v>
     <v>       0.00000000      20.00000000       0.00000000 </v>
     <v>       0.00000000       0.00000000      24.00000000 </v>
    </varray>
    <i name="volume">   9600.00000000 </i>
    <varray name="rec_basis" >
     <v>       0.05000000       0.00000000       0.00000000 </v>
     <v>       0.00000000       0.05000000       0.00000000 </v>
     <v>       0.00000000       0.00000000       0.04166667 </v>
    </varray>
   </crystal>
   <varray name="positions" >
    <v>       0.55165692       0.57113937       0.46299241 </v>
    <v>       0.34041608       0.36918496       0.42570719 </v>
    <v>       0.55117255       0.37101411       0.56087836 </v>
    <v>       0.33429436       0.56443926       0.51921948 </v>
    <v>       0.56197563       0.49900810       0.37016656 </v>
    <v>       0.54793726       0.50302865       0.56173106 </v>
    <v>       0.54824551       0.69523083       0.46461430 </v>
    <v>       0.55227934       0.62892784       0.36863576 </v>
    <v>       0.65075607       0.69674758       0.52803451 </v>
    <v>       0.55203229       0.43569416       0.46456327 </v>
    <v>       0.55465089       0.37134223       0.37181043 </v>
    <v>       0.43335297       0.56550703       0.58657081 </v>
    <v>       0.33467662       0.43694620       0.52128140 </v>
    <v>       0.66105379       0.56432801       0.34201554 </v>
    <v>       0.33411802       0.50234491       0.61155864 </v>
    <v>       0.55033431       0.30442342       0.47039222 </v>
    <v>       0.66207848       0.43621392       0.34388619 </v>
    <v>       0.65243983       0.43480733       0.53330827 </v>
    <v>       0.43420319       0.49973533       0.49362011 </v>
    <v>       0.34388935       0.56742413       0.33047032 </v>
    <v>       0.65372561       0.31107173       0.53209815 </v>
    <v>       0.44104889       0.62969167       0.49188855 </v>
    <v>       0.34477472       0.42784906       0.33209565 </v>
    <v>       0.54947127       0.63645055       0.55624084 </v>
    <v>       0.44275324       0.37190391       0.49487247 </v>
    <v>       0.45040338       0.49716276       0.30082493 </v>
    <v>       0.65205320       0.57347920       0.53163718 </v>
    <v>       0.65768688       0.50275920       0.43922782 </v>
    <v>       0.66663445       0.49884243       0.25156101 </v>
    <v>       0.34809805       0.49548265       0.24257594 </v>
    <v>       0.65521946       0.63241348       0.43793684 </v>
    <v>       0.44613678       0.63075462       0.30403220 </v>
    <v>       0.35186398       0.61841583       0.23405278 </v>
    <v>       0.65625279       0.37218190       0.44181064 </v>
    <v>       0.34314441       0.69158650       0.33064832 </v>
    <v>       0.35383446       0.37224263       0.23695233 </v>
    <v>       0.44308215       0.56997783       0.39883125 </v>
    <v>       0.44796495       0.36462591       0.30676524 </v>
    <v>       0.46053541       0.56448124       0.21428964 </v>
    <v>       0.44439741       0.69317689       0.39539377 </v>
    <v>       0.34557245       0.30345047       0.33485831 </v>
    <v>       0.46053449       0.42858486       0.21553046 </v>
    <v>       0.44394525       0.42737129       0.40066348 </v>
    <v>       0.56323098       0.56075058       0.27560131 </v>
    <v>       0.55627782       0.49588506       0.18403153 </v>
    <v>       0.44493991       0.30273756       0.39852721 </v>
    <v>       0.56483054       0.43565181       0.27694639 </v>
    <v>       0.64740641       0.50573807       0.62165955 </v>
    <v>       0.33822570       0.49864159       0.42368010 </v>
    <v>       0.43494954       0.43979436       0.58771478 </v>
    <v>       0.63692016       0.62690387       0.62891911 </v>
    <v>       0.33897965       0.62926898       0.42207416 </v>
    <v>       0.52839194       0.56914527       0.64835762 </v>
    <v>       0.64136306       0.38466437       0.63116504 </v>
    <v>       0.53138288       0.44039477       0.64991631 </v>
    <v>       0.50929904       0.22492919       0.44151789 </v>
   </varray>
  </structure>
  <varray name="primitive_index" >
   <v type="int" >        1 </v>
   <v type="int" >        2 </v>
   <v type="int" >        3 </v>
   <v type="int" >        4 </v>
   <v type="int" >        5 </v>
   <v type="int" >        6 </v>
   <v type="int" >        7 </v>
   <v type="int" >        8 </v>
   <v type="int" >        9 </v>
   <v type="int" >       10 </v>
   <v type="int" >       11 </v>
   <v type="int" >       12 </v>
   <v type="int" >       13 </v>
   <v type="int" >       14 </v>
   <v type="int" >       15 </v>
   <v type="int" >       16 </v>
   <v type="int" >       17 </v>
   <v type="int" >       18 </v>
   <v type="int" >       19 </v>
   <v type="int" >       20 </v>
   <v type="int" >       21 </v>
   <v type="int" >       22 </v>
   <v type="int" >       23 </v>
   <v type="int" >       24 </v>
   <v type="int" >       25 </v>
   <v type="int" >       26 </v>
   <v type="int" >       27 </v>
   <v type="int" >       28 </v>
   <v type="int" >       29 </v>
   <v type="int" >       30 </v>
   <v type="int" >       31 </v>
   <v type="int" >       32 </v>
   <v type="int" >       33 </v>
   <v type="int" >       34 </v>
   <v type="int" >       35 </v>
   <v type="int" >       36 </v>
   <v type="int" >       37 </v>
   <v type="int" >       38 </v>
   <v type="int" >       39 </v>
   <v type="int" >       40 </v>
   <v type="int" >       41 </v>
   <v type="int" >       42 </v>
   <v type="int" >       43 </v>
   <v type="int" >       44 </v>
   <v type="int" >       45 </v>
   <v type="int" >       46 </v>
   <v type="int" >       47 </v>
   <v type="int" >       48 </v>
   <v type="int" >       49 </v>
   <v type="int" >       50 </v>
   <v type="int" >       51 </v>
   <v type="int" >       52 </v>
   <v type="int" >       53 </v>
   <v type="int" >       54 </v>
   <v type="int" >       55 </v>
   <v type="int" >       56 </v>
  </varray>
 </primitive_cell>
 <kpoints>
  <generation param="Gamma">
   <v type="int" name="divisions">       1        1        1 </v>
   <v name="usershift">      0.00000000       0.00000000       0.00000000 </v>
   <v name="genvec1">      1.00000000       0.00000000       0.00000000 </v>
   <v name="genvec2">      0.00000000       1.00000000       0.00000000 </v>
   <v name="genvec3">      0.00000000       0.00000000       1.00000000 </v>
   <v name="shift">      0.00000000       0.00000000       0.00000000 </v>
  </generation>
  <varray name="kpointlist" >
   <v>       0.00000000       0.00000000       0.00000000 </v>
  </varray>
  <varray name="weights" >
   <v>       1.00000000 </v>
  </varray>
 </kpoints>
 <parameters>
  <separator name="general" >
   <i type="string" name="SYSTEM">Generated By Q_robot</i>
   <i type="logical" name="LCOMPAT"> F  </i>
  </separator>
  <separator name="electronic" >
   <i type="string" name="PREC">a</i>
   <i name="ENMAX">    450.00000000</i>
   <i name="ENAUG">    644.87300000</i>
   <i name="EDIFF">      0.00001000</i>
   <i type="int" name="IALGO">    68</i>
   <i type="int" name="IWAVPR">    11</i>
   <i type="int" name="NBANDS">   296</i>
   <i type="int" name="NBANDSLOW">    -1</i>
   <i type="int" name="NBANDSHIGH">    -1</i>
   <i name="NELECT">    444.00000000</i>
   <i type="int" name="TURBO">     0</i>
   <i type="int" name="IRESTART">     0</i>
   <i type="int" name="NREBOOT">     0</i>
   <i type="int" name="NMIN">     0</i>
   <i name="EREF">      0.00000000</i>
   <separator name="electronic smearing" >
    <i type="int" name="ISMEAR">     0</i>
    <i name="SIGMA">      0.05000000</i>
    <i name="KSPACING">      0.50000000</i>
    <i type="logical" name="KGAMMA"> T  </i>
    <i type="logical" name="KBLOWUP"> T  </i>
   </separator>
   <separator name="electronic projectors" >
    <i type="logical" name="LREAL"> T  </i>
    <v name="ROPT">     -0.00025000     -0.00025000</v>
    <i type="int" name="LMAXPAW">  -100</i>
    <i type="int" name="LMAXMIX">     2</i>
    <i type="logical" name="NLSPLINE"> F  </i>
   </separator>
   <separator name="electronic startup" >
    <i type="int" name="ISTART">     0</i>
    <i type="int" name="ICHARG">     2</i>
    <i type="int" name="INIWAV">     1</i>
   </separator>
   <separator name="electronic spin" >
    <i type="int" name="ISPIN">     2</i>
    <i type="logical" name="LNONCOLLINEAR"> F  </i>
    <v name="MAGMOM">      1.00000000      1.00000000      1.00000000      1.00000000      1.00000000      1.00000000      1.00000000      1.00000000      1.00000000      1.00000000      1.00000000      1.00000000      1.00000000      1.00000000      1.00000000      1.00000000      1.00000000      1.00000000      1.00000000      1.00000000
      1.00000000      1.00000000      1.00000000      1.00000000      1.00000000      1.00000000      1.00000000      1.00000000      1.00000000      1.00000000      1.00000000      1.00000000      1.00000000      1.00000000      1.00000000      1.00000000      1.00000000      1.00000000      1.00000000      1.00000000
      1.00000000      1.00000000      1.00000000      1.00000000      1.00000000      1.00000000      1.00000000      1.00000000      1.00000000      1.00000000      1.00000000      1.00000000      1.00000000      1.00000000      1.00000000      1.00000000</v>
    <i name="NUPDOWN">     -1.00000000</i>
    <i type="logical" name="LSORBIT"> F  </i>
    <v name="SAXIS">      0.00000000      0.00000000      1.00000000</v>
    <i type="logical" name="LSPIRAL"> F  </i>
    <v name="QSPIRAL">      0.00000000      0.00000000      0.00000000</v>
    <i type="logical" name="LZEROZ"> F  </i>
   </separator>
   <separator name="electronic exchange-correlation" >
    <i type="logical" name="LASPH"> F  </i>
   </separator>
   <separator name="electronic convergence" >
    <i type="int" name="NELM">   200</i>
    <i type="int" name="NELMDL">     0</i>
    <i type="int" name="NELMIN">     2</i>
    <i name="ENINI">    450.00000000</i>
    <separator name="electronic convergence detail" >
     <i type="logical" name="LDIAG"> T  </i>
     <i type="logical" name="LSUBROT"> F  </i>
     <i name="WEIMIN">      0.00100000</i>
     <i name="EBREAK">      0.00000001</i>
     <i name="DEPER">      0.30000000</i>
     <i type="int" name="NRMM">     4</i>
     <i name="TIME">      0.40000000</i>
    </separator>
   </separator>
   <separator name="electronic mixer" >
    <i name="AMIX">      0.40000000</i>
    <i name="BMIX">      1.00000000</i>
    <i name="AMIN">      0.10000000</i>
    <i name="AMIX_MAG">      1.60000000</i>
    <i name="BMIX_MAG">      1.00000000</i>
    <separator name="electronic mixer details" >
     <i type="int" name="IMIX">     4</i>
     <i type="logical" name="MIXFIRST"> F  </i>
     <i type="int" name="MAXMIX">   -45</i>
     <i name="WC">    100.00000000</i>
     <i type="int" name="INIMIX">     1</i>
     <i type="int" name="MIXPRE">     1</i>
     <i type="int" name="MREMOVE">     5</i>
    </separator>
   </separator>
   <separator name="electronic dipolcorrection" >
    <i type="logical" name="LDIPOL"> F  </i>
    <i type="logical" name="LMONO"> F  </i>
    <i type="int" name="IDIPOL">     0</i>
    <i name="EPSILON">      1.00000000</i>
    <v name="DIPOL">   -100.00000000   -100.00000000   -100.00000000</v>
    <i name="EFIELD">      0.00000000</i>
    <i type="logical" name="LVACPOTAV"> F  </i>
   </separator>
  </separator>
  <separator name="grids" >
   <i type="int" name="NGX">   140</i>
   <i type="int" name="NGY">   140</i>
   <i type="int" name="NGZ">   168</i>
   <i type="int" name="NGXF">   280</i>
   <i type="int" name="NGYF">   280</i>
   <i type="int" name="NGZF">   336</i>
   <i type="logical" name="ADDGRID"> F  </i>
  </separator>
  <separator name="ionic" >
   <i type="int" name="NSW">   500</i>
   <i type="int" name="IBRION">     2</i>
   <i type="int" name="MDALGO">     0</i>
   <i type="int" name="ISIF">     2</i>
   <i name="PSTRESS">      0.00000000</i>
   <i name="EDIFFG">     -0.05000000</i>
   <i type="int" name="NFREE">     1</i>
   <i name="POTIM">      0.10000000</i>
   <i name="SMASS">     -3.00000000</i>
   <i name="SCALEE">      1.00000000</i>
  </separator>
  <separator name="ionic md" >
   <i name="TEBEG">      0.00010000</i>
   <i name="TEEND">      0.00010000</i>
   <i type="int" name="NBLOCK">     1</i>
   <i type="int" name="KBLOCK">   500</i>
   <i type="int" name="NPACO">   256</i>
   <i name="APACO">     10.00000000</i>
  </separator>
  <separator name="symmetry" >
   <i type="int" name="ISYM">     2</i>
   <i name="SYMPREC">      0.00001000</i>
  </separator>
  <separator name="dos" >
   <i type="int" name="LORBIT">    11</i>
   <v name="RWIGS">     -1.00000000     -1.00000000</v>
   <i type="int" name="NEDOS">   301</i>
   <i name="EMIN">     10.00000000</i>
   <i name="EMAX">    -10.00000000</i>
   <i name="EFERMI">      0.00000000</i>
  </separator>
  <separator name="writing" >
   <i type="int" name="NWRITE">     0</i>
   <i type="logical" name="LWAVE"> T  </i>
   <i type="logical" name="LDOWNSAMPLE"> F  </i>
   <i type="logical" name="LCHARG"> F  </i>
   <i type="logical" name="LPARD"> F  </i>
   <i type="logical" name="LVTOT"> F  </i>
   <i type="logical" name="LVHAR"> F  </i>
   <i type="logical" name="LELF"> F  </i>
   <i type="logical" name="LOPTICS"> F  </i>
   <v name="STM">      0.00000000      0.00000000      0.00000000      0.00000000      0.00000000      0.00000000      0.00000000</v>
  </separator>
  <separator name="performance" >
   <i type="int" name="NPAR">     8</i>
   <i type="int" name="NSIM">     4</i>
   <i type="int" name="NBLK">    -1</i>
   <i type="logical" name="LPLANE"> T  </i>
   <i type="logical" name="LSCALAPACK"> F  </i>
   <i type="logical" name="LSCAAWARE"> F  </i>
   <i type="logical" name="LSCALU"> F  </i>
   <i type="logical" name="LASYNC"> F  </i>
   <i type="logical" name="LORBITALREAL"> F  </i>
  </separator>
  <separator name="miscellaneous" >
   <i type="int" name="IDIOT">     3</i>
   <i type="int" name="PHON_NSTRUCT">    -1</i>
   <i type="logical" name="LMUSIC"> F  </i>
   <v name="POMASS">    101.07000000     12.01100000</v>
   <v name="DARWINR">      0.00000000      0.00000000</v>
   <v name="DARWINV">      1.00000000      1.00000000</v>
   <i type="logical" name="LCORR"> T  </i>
  </separator>
  <i type="logical" name="GGA_COMPAT"> T  </i>
  <i type="logical" name="LBERRY"> F  </i>
  <i type="int" name="ICORELEVEL">     0</i>
  <i type="logical" name="LDAU"> F  </i>
  <i type="int" name="I_CONSTRAINED_M">     0</i>
  <separator name="electronic exchange-correlation" >
   <i type="string" name="GGA    ">PE</i>
   <i type="string" name="XC_C">1</i>
   <i type="int" name="VOSKOWN">     0</i>
   <i type="logical" name="LHFCALC"> F  </i>
   <i type="string" name="PRECFOCK"></i>
   <i type="logical" name="LSYMGRAD"> F  </i>
   <i type="logical" name="LHFONE"> F  </i>
   <i type="logical" name="LRHFCALC"> F  </i>
   <i type="logical" name="LTHOMAS"> F  </i>
   <i type="logical" name="LMODELHF"> F  </i>
   <i type="logical" name="LFOCKACE"> F  </i>
   <i name="ENCUT4O">     -1.00000000</i>
   <i type="int" name="EXXOEP">     0</i>
   <i type="int" name="FOURORBIT">     0</i>
   <i name="AEXX">      0.00000000</i>
   <i name="HFALPHA">      0.00000000</i>
   <i name="MCALPHA">      0.00000000</i>
   <i name="ALDAX">      1.00000000</i>
   <i name="AGGAX">      1.00000000</i>
   <i name="AMGGAX">      1.00000000</i>
   <i name="ALDAC">      1.00000000</i>
   <i name="AGGAC">      1.00000000</i>
   <i name="AMGGAC">      1.00000000</i>
   <i type="int" name="NKREDX">     1</i>
   <i type="int" name="NKREDY">     1</i>
   <i type="int" name="NKREDZ">     1</i>
   <i type="logical" name="SHIFTRED"> F  </i>
   <i type="logical" name="ODDONLY"> F  </i>
   <i type="logical" name="EVENONLY"> F  </i>
   <i type="int" name="LMAXFOCK">     0</i>
   <i type="int" name="NMAXFOCKAE">     0</i>
   <i type="logical" name="LFOCKAEDFT"> F  </i>
   <i name="HFSCREEN">      0.00000000</i>
   <i name="HFSCREENC">      0.00000000</i>
   <i type="int" name="NBANDSGWLOW">     0</i>
  </separator>
  <separator name="vdW DFT" >
   <i type="logical" name="LUSE_VDW"> F  </i>
   <i type="int" name="IVDW_NL">    -1</i>
   <i type="logical" name="LSPIN_VDW"> F  </i>
   <i name="ZAB_VDW">     -0.84910000</i>
   <i name="GAMMA_VDW">      1.39626340</i>
   <i name="ALPHA_VDW">      0.00000000</i>
   <i name="PARAM1">      0.12340000</i>
   <i name="PARAM2">      1.00000000</i>
   <i name="BPARAM">      6.30000000</i>
   <i name="CPARAM">      0.00930000</i>
  </separator>
  <separator name="model GW" >
   <i type="int" name="MODEL_GW">     0</i>
   <i name="MODEL_EPS0">    102.85714286</i>
   <i name="MODEL_ALPHA">      1.00000000</i>
  </separator>
  <separator name="linear response parameters" >
   <i type="logical" name="LEPSILON"> F  </i>
   <i type="logical" name="LRPA"> F  </i>
   <i type="logical" name="LNABLA"> F  </i>
   <i type="logical" name="LVEL"> F  </i>
   <i name="CSHIFT">      0.10000000</i>
   <i name="OMEGAMAX">     -1.00000000</i>
   <i name="DEG_THRESHOLD">      0.00200000</i>
   <i name="RTIME">     -0.10000000</i>
   <i name="WPLASMAI">      0.00000000</i>
   <v name="DFIELD">      0.00000000      0.00000000      0.00000000</v>
   <v name="WPLASMA">      0.00000000      0.00000000      0.00000000      0.00000000      0.00000000      0.00000000      0.00000000      0.00000000      0.00000000</v>
  </separator>
  <separator name="orbital magnetization" >
   <i type="logical" name="NUCIND"> F  </i>
   <v name="MAGPOS">      0.00000000      0.00000000      0.00000000</v>
   <i type="logical" name="LNICSALL"> T  </i>
   <i type="logical" name="ORBITALMAG"> F  </i>
   <i type="logical" name="LMAGBLOCH"> F  </i>
   <i type="logical" name="LCHIMAG"> F  </i>
   <i type="logical" name="LGAUGE"> T  </i>
   <i type="int" name="MAGATOM">     0</i>
   <v name="MAGDIPOL">      0.00000000      0.00000000      0.00000000</v>
   <v name="AVECCONST">      0.00000000      0.00000000      0.00000000</v>
  </separator>
  <separator name="response functions" >
   <i type="logical" name="LALL_IN_ONE"> F  </i>
   <i type="int" name="IALL_IN_ONE">    -1</i>
   <i type="int" name="NBANDS_WAVE">    -1</i>
   <i type="logical" name="LFINITE_TEMPERATURE"> F  </i>
   <i type="logical" name="LADDER"> F  </i>
   <i type="logical" name="LRPAFORCE"> F  </i>
   <i type="logical" name="LFXC"> F  </i>
   <i type="logical" name="LHARTREE"> T  </i>
   <i type="int" name="IBSE">     0</i>
   <v type="int" name="KPOINT">    -1     0     0     0</v>
   <i type="logical" name="LTCTC"> F  </i>
   <i type="logical" name="LTCTE"> F  </i>
   <i type="logical" name="LTETE"> F  </i>
   <i type="logical" name="LTRIPLET"> F  </i>
   <i type="logical" name="LFXCEPS"> F  </i>
   <i type="logical" name="LFXHEG"> F  </i>
   <i type="int" name="NATURALO">     2</i>
   <i type="logical" name="LHOLEGF"> F  </i>
   <i type="logical" name="L2ORDER"> F  </i>
   <i type="logical" name="LDMP1"> F  </i>
   <i type="logical" name="LMP2LT"> F  </i>
   <i type="logical" name="LSMP2LT"> F  </i>
   <i type="logical" name="LGWLF"> F  </i>
   <i name="ENCUTGW">     -1.60000002</i>
   <i name="ENCUTGWSOFT">     -1.60000002</i>
   <i name="ENCUTLF">     -1.00000000</i>
   <i type="logical" name="ESF_SPLINES"> F  </i>
   <i name="ESF_CONV">      0.01000000</i>
   <i type="int" name="ESF_NINTER">    15</i>
   <i type="int" name="LMAXMP2">    -1</i>
   <i name="SCISSOR">      0.00000000</i>
   <i type="int" name="NOMEGA">     0</i>
   <i type="int" name="NOMEGAR">     0</i>
   <i type="int" name="NBANDSGW">    -1</i>
   <i type="int" name="NBANDSO">    -1</i>
   <i type="int" name="NBANDSV">    -1</i>
   <i type="int" name="NELMGW">     1</i>
   <i type="int" name="NELMHF">     1</i>
   <i type="int" name="DIM">     3</i>
   <i type="int" name="IESPILON">     4</i>
   <i type="int" name="ANTIRES">     0</i>
   <i name="OMEGAMAX">    -30.00000000</i>
   <i name="OMEGAMIN">    -30.00000000</i>
   <i name="OMEGATL">   -200.00000000</i>
   <i type="int" name="OMEGAGRID">     0</i>
   <i name="CSHIFT">     -0.10000000</i>
   <i type="logical" name="LSELFENERGY"> F  </i>
   <i type="logical" name="LSPECTRAL"> F  </i>
   <i type="logical" name="LSPECTRALGW"> F  </i>
   <i type="logical" name="LSINGLES"> F  </i>
   <i type="logical" name="LFERMIGW"> F  </i>
   <i type="logical" name="ODDONLYGW"> F  </i>
   <i type="logical" name="EVENONLYGW"> F  </i>
   <i type="int" name="NKREDLFX">     1</i>
   <i type="int" name="NKREDLFY">     1</i>
   <i type="int" name="NKREDLFZ">     1</i>
   <i type="int" name="MAXMEM">  2800</i>
   <i type="int" name="TELESCOPE">     0</i>
   <i type="int" name="NTAUPAR">    -1</i>
   <i type="int" name="NOMEGAPAR">    -1</i>
   <i name="DAMP_NEWTON">      0.80000001</i>
   <i name="LAMBDA">      1.00000000</i>
  </separator>
  <separator name="External order field" >
   <i name="OFIELD_KAPPA">      0.00000000</i>
   <v name="OFIELD_K">      0.00000000      0.00000000      0.00000000</v>
   <i name="OFIELD_Q6_NEAR">      0.00000000</i>
   <i name="OFIELD_Q6_FAR">      0.00000000</i>
   <i name="OFIELD_A">      0.00000000</i>
  </separator>
  <separator name="optional k-points parameters" >
   <i type="int" name="KPOINTS_OPT_MODE">     1</i>
   <i type="logical" name="LKPOINTS_OPT"> F  </i>
  </separator>
 </parameters>
 <atominfo>
  <atoms>      56 </atoms>
  <types>       2 </types>
  <array name="atoms" >
   <dimension dim="1">ion</dimension>
   <field type="string">element</field>
   <field type="int">atomtype</field>
   <set>
    <rc><c>Ru</c><c>   1</c></rc>
    <rc><c>Ru</c><c>   1</c></rc>
    <rc><c>Ru</c><c>   1</c></rc>
    <rc><c>Ru</c><c>   1</c></rc>
    <rc><c>Ru</c><c>   1</c></rc>
    <rc><c>Ru</c><c>   1</c></rc>
    <rc><c>Ru</c><c>   1</c></rc>
    <rc><c>Ru</c><c>   1</c></rc>
    <rc><c>Ru</c><c>   1</c></rc>
    <rc><c>Ru</c><c>   1</c></rc>
    <rc><c>Ru</c><c>   1</c></rc>
    <rc><c>Ru</c><c>   1</c></rc>
    <rc><c>Ru</c><c>   1</c></rc>
    <rc><c>Ru</c><c>   1</c></rc>
    <rc><c>Ru</c><c>   1</c></rc>
    <rc><c>Ru</c><c>   1</c></rc>
    <rc><c>Ru</c><c>   1</c></rc>
    <rc><c>Ru</c><c>   1</c></rc>
    <rc><c>Ru</c><c>   1</c></rc>
    <rc><c>Ru</c><c>   1</c></rc>
    <rc><c>Ru</c><c>   1</c></rc>
    <rc><c>Ru</c><c>   1</c></rc>
    <rc><c>Ru</c><c>   1</c></rc>
    <rc><c>Ru</c><c>   1</c></rc>
    <rc><c>Ru</c><c>   1</c></rc>
    <rc><c>Ru</c><c>   1</c></rc>
    <rc><c>Ru</c><c>   1</c></rc>
    <rc><c>Ru</c><c>   1</c></rc>
    <rc><c>Ru</c><c>   1</c></rc>
    <rc><c>Ru</c><c>   1</c></rc>
    <rc><c>Ru</c><c>   1</c></rc>
    <rc><c>Ru</c><c>   1</c></rc>
    <rc><c>Ru</c><c>   1</c></rc>
    <rc><c>Ru</c><c>   1</c></rc>
    <rc><c>Ru</c><c>   1</c></rc>
    <rc><c>Ru</c><c>   1</c></rc>
    <rc><c>Ru</c><c>   1</c></rc>
    <rc><c>Ru</c><c>   1</c></rc>
    <rc><c>Ru</c><c>   1</c></rc>
    <rc><c>Ru</c><c>   1</c></rc>
    <rc><c>Ru</c><c>   1</c></rc>
    <rc><c>Ru</c><c>   1</c></rc>
    <rc><c>Ru</c><c>   1</c></rc>
    <rc><c>Ru</c><c>   1</c></rc>
    <rc><c>Ru</c><c>   1</c></rc>
    <rc><c>Ru</c><c>   1</c></rc>
    <rc><c>Ru</c><c>   1</c></rc>
    <rc><c>Ru</c><c>   1</c></rc>
    <rc><c>Ru</c><c>   1</c></rc>
    <rc><c>Ru</c><c>   1</c></rc>
    <rc><c>Ru</c><c>   1</c></rc>
    <rc><c>Ru</c><c>   1</c></rc>
    <rc><c>Ru</c><c>   1</c></rc>
    <rc><c>Ru</c><c>   1</c></rc>
    <rc><c>Ru</c><c>   1</c></rc>
    <rc><c>C </c><c>   2</c></rc>
   </set>
  </array>
  <array name="atomtypes" >
   <dimension dim="1">type</dimension>
   <field type="int">atomspertype</field>
   <field type="string">element</field>
   <field>mass</field>
   <field>valence</field>
   <field type="string">pseudopotential</field>
   <set>
    <rc><c>  55</c><c>Ru</c><c>    101.07000000</c><c>      8.00000000</c><c>  PAW_PBE Ru 04Feb2005                  </c></rc>
    <rc><c>   1</c><c>C </c><c>     12.01100000</c><c>      4.00000000</c><c>  PAW_PBE C 08Apr2002                   </c></rc>
   </set>
  </array>
 </atominfo>
 <structure name="initialpos" >
  <crystal>
   <varray name="basis" >
    <v>      20.00000000       0.00000000       0.00000000 </v>
    <v>       0.00000000      20.00000000       0.00000000 </v>
    <v>       0.00000000       0.00000000      24.00000000 </v>
   </varray>
   <i name="volume">   9600.00000000 </i>
   <varray name="rec_basis" >
    <v>       0.05000000       0.00000000       0.00000000 </v>
    <v>       0.00000000       0.05000000       0.00000000 </v>
    <v>       0.00000000       0.00000000       0.04166667 </v>
   </varray>
  </crystal>
  <varray name="positions" >
   <v>       0.55165692       0.57113937       0.46299241 </v>
   <v>       0.34041608       0.36918496       0.42570719 </v>
   <v>       0.55117255       0.37101411       0.56087836 </v>
   <v>       0.33429436       0.56443926       0.51921948 </v>
   <v>       0.56197563       0.49900810       0.37016656 </v>
   <v>       0.54793726       0.50302865       0.56173106 </v>
   <v>       0.54824551       0.69523083       0.46461430 </v>
   <v>       0.55227934       0.62892784       0.36863576 </v>
   <v>       0.65075607       0.69674758       0.52803451 </v>
   <v>       0.55203229       0.43569416       0.46456327 </v>
   <v>       0.55465089       0.37134223       0.37181043 </v>
   <v>       0.43335297       0.56550703       0.58657081 </v>
   <v>       0.33467662       0.43694620       0.52128140 </v>
   <v>       0.66105379       0.56432801       0.34201554 </v>
   <v>       0.33411802       0.50234491       0.61155864 </v>
   <v>       0.55033431       0.30442342       0.47039222 </v>
   <v>       0.66207848       0.43621392       0.34388619 </v>
   <v>       0.65243983       0.43480733       0.53330827 </v>
   <v>       0.43420319       0.49973533       0.49362011 </v>
   <v>       0.34388935       0.56742413       0.33047032 </v>
   <v>       0.65372561       0.31107173       0.53209815 </v>
   <v>       0.44104889       0.62969167       0.49188855 </v>
   <v>       0.34477472       0.42784906       0.33209565 </v>
   <v>       0.54947127       0.63645055       0.55624084 </v>
   <v>       0.44275324       0.37190391       0.49487247 </v>
   <v>       0.45040338       0.49716276       0.30082493 </v>
   <v>       0.65205320       0.57347920       0.53163718 </v>
   <v>       0.65768688       0.50275920       0.43922782 </v>
   <v>       0.66663445       0.49884243       0.25156101 </v>
   <v>       0.34809805       0.49548265       0.24257594 </v>
   <v>       0.65521946       0.63241348       0.43793684 </v>
   <v>       0.44613678       0.63075462       0.30403220 </v>
   <v>       0.35186398       0.61841583       0.23405278 </v>
   <v>       0.65625279       0.37218190       0.44181064 </v>
   <v>       0.34314441       0.69158650       0.33064832 </v>
   <v>       0.35383446       0.37224263       0.23695233 </v>
   <v>       0.44308215       0.56997783       0.39883125 </v>
   <v>       0.44796495       0.36462591       0.30676524 </v>
   <v>       0.46053541       0.56448124       0.21428964 </v>
   <v>       0.44439741       0.69317689       0.39539377 </v>
   <v>       0.34557245       0.30345047       0.33485831 </v>
   <v>       0.46053449       0.42858486       0.21553046 </v>
   <v>       0.44394525       0.42737129       0.40066348 </v>
   <v>       0.56323098       0.56075058       0.27560131 </v>
   <v>       0.55627782       0.49588506       0.18403153 </v>
   <v>       0.44493991       0.30273756       0.39852721 </v>
   <v>       0.56483054       0.43565181       0.27694639 </v>
   <v>       0.64740641       0.50573807       0.62165955 </v>
   <v>       0.33822570       0.49864159       0.42368010 </v>
   <v>       0.43494954       0.43979436       0.58771478 </v>
   <v>       0.63692016       0.62690387       0.62891911 </v>
   <v>       0.33897965       0.62926898       0.42207416 </v>
   <v>       0.52839194       0.56914527       0.64835762 </v>
   <v>       0.64136306       0.38466437       0.63116504 </v>
   <v>       0.53138288       0.44039477       0.64991631 </v>
   <v>       0.50929904       0.22492919       0.44151789 </v>
  </varray>
  <varray name="selective"  type="logical" >
   <v type="logical" >  T  T  T </v>
   <v type="logical" >  T  T  T </v>
   <v type="logical" >  T  T  T </v>
   <v type="logical" >  T  T  T </v>
   <v type="logical" >  T  T  T </v>
   <v type="logical" >  T  T  T </v>
   <v type="logical" >  T  T  T </v>
   <v type="logical" >  T  T  T </v>
   <v type="logical" >  T  T  T </v>
   <v type="logical" >  T  T  T </v>
   <v type="logical" >  T  T  T </v>
   <v type="logical" >  T  T  T </v>
   <v type="logical" >  T  T  T </v>
   <v type="logical" >  T  T  T </v>
   <v type="logical" >  T  T  T </v>
   <v type="logical" >  T  T  T </v>
   <v type="logical" >  T  T  T </v>
   <v type="logical" >  T  T  T </v>
   <v type="logical" >  T  T  T </v>
   <v type="logical" >  T  T  T </v>
   <v type="logical" >  T  T  T </v>
   <v type="logical" >  T  T  T </v>
   <v type="logical" >  T  T  T </v>
   <v type="logical" >  T  T  T </v>
   <v type="logical" >  T  T  T </v>
   <v type="logical" >  T  T  T </v>
   <v type="logical" >  T  T  T </v>
   <v type="logical" >  T  T  T </v>
   <v type="logical" >  T  T  T </v>
   <v type="logical" >  T  T  T </v>
   <v type="logical" >  T  T  T </v>
   <v type="logical" >  T  T  T </v>
   <v type="logical" >  T  T  T </v>
   <v type="logical" >  T  T  T </v>
   <v type="logical" >  T  T  T </v>
   <v type="logical" >  T  T  T </v>
   <v type="logical" >  T  T  T </v>
   <v type="logical" >  T  T  T </v>
   <v type="logical" >  T  T  T </v>
   <v type="logical" >  T  T  T </v>
   <v type="logical" >  T  T  T </v>
   <v type="logical" >  T  T  T </v>
   <v type="logical" >  T  T  T </v>
   <v type="logical" >  T  T  T </v>
   <v type="logical" >  T  T  T </v>
   <v type="logical" >  T  T  T </v>
   <v type="logical" >  T  T  T </v>
   <v type="logical" >  T  T  T </v>
   <v type="logical" >  T  T  T </v>
   <v type="logical" >  T  T  T </v>
   <v type="logical" >  T  T  T </v>
   <v type="logical" >  T  T  T </v>
   <v type="logical" >  T  T  T </v>
   <v type="logical" >  T  T  T </v>
   <v type="logical" >  T  T  T </v>
   <v type="logical" >  T  T  T </v>
  </varray>
  <nose>
   <v>      -3.00000000       0.00000000       0.00010000       0.00010000 </v>
  </nose>
 </structure>
 <calculation>
  <scstep>
   <time name="dav">    8.16    8.20</time>
   <time name="total">    8.89    8.96</time>
   <energy>
    <i name="alphaZ">    146.83978540 </i>
    <i name="ewald"> 101571.62981990 </i>
    <i name="hartreedc">-124940.29856745 </i>
    <i name="XCdc">  -1774.05816878 </i>
    <i name="pawpsdc">  25550.12912037 </i>
    <i name="pawaedc"> -22870.47082621 </i>
    <i name="eentropy">     -0.06771468 </i>
    <i name="bandstr">    557.75319275 </i>
    <i name="atom">  25165.59295924 </i>
    <i name="e_fr_energy">   3407.04960052 </i>
    <i name="e_wo_entrp">   3407.11731520 </i>
    <i name="e_0_energy">   3407.08345786 </i>
   </energy>
  </scstep>
  <scstep>
   <time name="dav">   11.24   11.30</time>
   <time name="total">   11.24   11.31</time>
   <energy>
    <i name="e_fr_energy">    -22.95878808 </i>
    <i name="e_wo_entrp">    -22.89833991 </i>
    <i name="e_0_energy">    -22.92856399 </i>
   </energy>
  </scstep>
  <scstep>
   <time name="dav">    9.25    9.33</time>
   <time name="total">    9.25    9.33</time>
   <energy>
    <i name="e_fr_energy">   -445.87200798 </i>
    <i name="e_wo_entrp">   -445.77510118 </i>
    <i name="e_0_energy">   -445.82355458 </i>
   </energy>
  </scstep>
  <scstep>
   <time name="dav">   10.95   11.05</time>
   <time name="total">   10.95   11.06</time>
   <energy>
    <i name="e_fr_energy">   -470.82945292 </i>
    <i name="e_wo_entrp">   -470.72678112 </i>
    <i name="e_0_energy">   -470.77811702 </i>
   </energy>
  </scstep>
  <scstep>
   <time name="dav">   10.98   11.08</time>
   <time name="total">   11.86   11.99</time>
   <energy>
    <i name="e_fr_energy">   -472.35715262 </i>
    <i name="e_wo_entrp">   -472.24975146 </i>
    <i name="e_0_energy">   -472.30345204 </i>
   </energy>
  </scstep>
  <scstep>
   <time name="diag">    1.69    1.70</time>
   <time name="diis">    6.21    6.23</time>
   <time name="orth">    0.08    0.09</time>
   <time name="total">    9.57    9.62</time>
   <energy>
    <i name="e_fr_energy">   -453.99474691 </i>
    <i name="e_wo_entrp">   -453.91785483 </i>
    <i name="e_0_energy">   -453.95630087 </i>
   </energy>
  </scstep>
  <scstep>
   <time name="diag">    1.69    1.70</time>
   <time name="diis">    6.50    6.53</time>
   <time name="orth">    0.08    0.08</time>
   <time name="total">    9.85    9.89</time>
   <energy>
    <i name="e_fr_energy">   -553.35573322 </i>
    <i name="e_wo_entrp">   -553.29654546 </i>
    <i name="e_0_energy">   -553.32613934 </i>
   </energy>
  </scstep>
  <scstep>
   <time name="diag">    1.69    1.70</time>
   <time name="diis">    6.09    6.11</time>
   <time name="orth">    0.08    0.08</time>
   <time name="total">    9.46    9.52</time>
   <energy>
    <i name="e_fr_energy">   -447.40473351 </i>
    <i name="e_wo_entrp">   -447.29148432 </i>
    <i name="e_0_energy">   -447.34810891 </i>
   </energy>
  </scstep>
  <scstep>
   <time name="diag">    1.70    1.71</time>
   <time name="diis">    6.08    6.10</time>
   <time name="orth">    0.08    0.10</time>
   <time name="total">    9.43    9.49</time>
   <energy>
    <i name="e_fr_energy">   -390.84422298 </i>
    <i name="e_wo_entrp">   -390.76616462 </i>
    <i name="e_0_energy">   -390.80519380 </i>
   </energy>
  </scstep>
  <scstep>
   <time name="diag">    1.69    1.70</time>
   <time name="diis">    6.43    6.45</time>
   <time name="orth">    0.08    0.08</time>
   <time name="total">    9.79    9.84</time>
   <energy>
    <i name="e_fr_energy">   -393.00191769 </i>
    <i name="e_wo_entrp">   -392.90613958 </i>
    <i name="e_0_energy">   -392.95402864 </i>
   </energy>
  </scstep>
  <scstep>
   <time name="diag">    1.71    1.72</time>
   <time name="diis">    6.12    6.15</time>
   <time name="orth">    0.08    0.08</time>
   <time name="total">    9.49    9.54</time>
   <energy>
    <i name="e_fr_energy">   -386.27359622 </i>
    <i name="e_wo_entrp">   -386.16010815 </i>
    <i name="e_0_energy">   -386.21685218 </i>
   </energy>
  </scstep>
  <scstep>
   <time name="diag">    1.70    1.71</time>
   <time name="diis">    7.40    7.43</time>
   <time name="orth">    0.08    0.08</time>
   <time name="total">   10.76   10.80</time>
   <energy>
    <i name="e_fr_energy">   -386.87750105 </i>
    <i name="e_wo_entrp">   -386.77661327 </i>
    <i name="e_0_energy">   -386.82705716 </i>
   </energy>
  </scstep>
  <scstep>
   <time name="diag">    1.71    1.71</time>
   <time name="diis">    7.03    7.06</time>
   <time name="orth">    0.08    0.08</time>
   <time name="total">   10.40   10.45</time>
   <energy>
    <i name="e_fr_energy">   -387.01395686 </i>
    <i name="e_wo_entrp">   -386.91121382 </i>
    <i name="e_0_energy">   -386.96258534 </i>
   </energy>
  </scstep>
  <scstep>
   <time name="diag">    1.71    1.72</time>
   <time name="diis">    6.73    6.76</time>
   <time name="orth">    0.08    0.09</time>
   <time name="total">   10.11   10.17</time>
   <energy>
    <i name="e_fr_energy">   -387.07635428 </i>
    <i name="e_wo_entrp">   -386.97973642 </i>
    <i name="e_0_energy">   -387.02804535 </i>
   </energy>
  </scstep>
  <scstep>
   <time name="diag">    1.71    1.72</time>
   <time name="diis">    6.55    6.58</time>
   <time name="orth">    0.08    0.08</time>
   <time name="total">    9.92    9.98</time>
   <energy>
    <i name="e_fr_energy">   -387.40263381 </i>
    <i name="e_wo_entrp">   -387.30789619 </i>
    <i name="e_0_energy">   -387.35526500 </i>
   </energy>
  </scstep>
  <scstep>
   <time name="diag">    1.71    1.72</time>
   <time name="diis">    8.09    8.13</time>
   <time name="orth">    0.08    0.09</time>
   <time name="total">   11.49   11.55</time>
   <energy>
    <i name="e_fr_energy">   -389.73891212 </i>
    <i name="e_wo_entrp">   -389.65850420 </i>
    <i name="e_0_energy">   -389.69870816 </i>
   </energy>
  </scstep>
  <scstep>
   <time name="diag">    1.71    1.72</time>
   <time name="diis">    8.17    8.20</time>
   <time name="orth">    0.08    0.09</time>
   <time name="total">   11.54   11.61</time>
   <energy>
    <i name="e_fr_energy">   -394.02662836 </i>
    <i name="e_wo_entrp">   -393.94813679 </i>
    <i name="e_0_energy">   -393.98738258 </i>
   </energy>
  </scstep>
  <scstep>
   <time name="diag">    1.71    1.72</time>
   <time name="diis">    7.83    7.87</time>
   <time name="orth">    0.08    0.09</time>
   <time name="total">   11.22   11.28</time>
   <energy>
    <i name="e_fr_energy">   -400.03172433 </i>
    <i name="e_wo_entrp">   -399.95242813 </i>
    <i name="e_0_energy">   -399.99207623 </i>
   </energy>
  </scstep>
  <scstep>
   <time name="diag">    1.71    1.72</time>
   <time name="diis">    7.26    7.29</time>
   <time name="orth">    0.08    0.08</time>
   <time name="total">   10.64   10.70</time>
   <energy>
    <i name="e_fr_energy">   -404.18081267 </i>
    <i name="e_wo_entrp">   -404.10993242 </i>
    <i name="e_0_energy">   -404.14537255 </i>
   </energy>
  </scstep>
  <scstep>
   <time name="diag">    1.71    1.71</time>
   <time name="diis">    7.42    7.45</time>
   <time name="orth">    0.08    0.10</time>
   <time name="total">   10.80   10.87</time>
   <energy>
    <i name="e_fr_energy">   -409.74951606 </i>
    <i name="e_wo_entrp">   -409.68263986 </i>
    <i name="e_0_energy">   -409.71607796 </i>
   </energy>
  </scstep>
  <scstep>
   <time name="diag">    1.71    1.72</time>
   <time name="diis">    7.02    7.06</time>
   <time name="orth">    0.09    0.09</time>
   <time name="total">   10.42   10.49</time>
   <energy>
    <i name="e_fr_energy">   -412.89195422 </i>
    <i name="e_wo_entrp">   -412.82210820 </i>
    <i name="e_0_energy">   -412.85703121 </i>
   </energy>
  </scstep>
  <scstep>
   <time name="diag">    1.71    1.72</time>
   <time name="diis">    7.54    7.57</time>
   <time name="orth">    0.08    0.09</time>
   <time name="total">   10.92   10.98</time>
   <energy>
    <i name="e_fr_energy">   -416.82521666 </i>
    <i name="e_wo_entrp">   -416.74882266 </i>
    <i name="e_0_energy">   -416.78701966 </i>
   </energy>
  </scstep>
  <scstep>
   <time name="diag">    1.71    1.72</time>
   <time name="diis">    7.99    8.02</time>
   <time name="orth">    0.08    0.08</time>
   <time name="total">   11.37   11.42</time>
   <energy>
    <i name="e_fr_energy">   -421.74070385 </i>
    <i name="e_wo_entrp">   -421.66644318 </i>
    <i name="e_0_energy">   -421.70357352 </i>
   </energy>
  </scstep>
  <scstep>
   <time name="diag">    1.71    1.72</time>
   <time name="diis">    7.82    7.86</time>
   <time name="orth">    0.08    0.09</time>
   <time name="total">   11.21   11.27</time>
   <energy>
    <i name="e_fr_energy">   -425.26318631 </i>
    <i name="e_wo_entrp">   -425.18792989 </i>
    <i name="e_0_energy">   -425.22555810 </i>
   </energy>
  </scstep>
  <scstep>
   <time name="diag">    1.70    1.71</time>
   <time name="diis">    7.62    7.66</time>
   <time name="orth">    0.08    0.09</time>
   <time name="total">   11.00   11.06</time>
   <energy>
    <i name="e_fr_energy">   -428.13117023 </i>
    <i name="e_wo_entrp">   -428.05822545 </i>
    <i name="e_0_energy">   -428.09469784 </i>
   </energy>
  </scstep>
  <scstep>
   <time name="diag">    1.71    1.71</time>
   <time name="diis">    7.21    7.25</time>
   <time name="orth">    0.08    0.11</time>
   <time name="total">   10.60   10.68</time>
   <energy>
    <i name="e_fr_energy">   -429.56197892 </i>
    <i name="e_wo_entrp">   -429.48837005 </i>
    <i name="e_0_energy">   -429.52517449 </i>
   </energy>
  </scstep>
  <scstep>
   <time name="diag">    1.70    1.72</time>
   <time name="diis">    7.31    7.36</time>
   <time name="orth">    0.08    0.09</time>
   <time name="total">   10.70   10.77</time>
   <energy>
    <i name="e_fr_energy">   -431.00254439 </i>
    <i name="e_wo_entrp">   -430.92981674 </i>
    <i name="e_0_energy">   -430.96618057 </i>
   </energy>
  </scstep>
  <scstep>
   <time name="diag">    1.70    1.71</time>
   <time name="diis">    6.80    6.85</time>
   <time name="orth">    0.08    0.09</time>
   <time name="total">   10.18   10.25</time>
   <energy>
    <i name="e_fr_energy">   -431.65992363 </i>
    <i name="e_wo_entrp">   -431.59160597 </i>
    <i name="e_0_energy">   -431.62576480 </i>
   </energy>
  </scstep>
  <scstep>
   <time name="diag">    1.71    1.72</time>
   <time name="diis">    7.37    7.42</time>
   <time name="orth">    0.08    0.09</time>
   <time name="total">   10.75   10.86</time>
   <energy>
    <i name="e_fr_energy">   -432.47820702 </i>
    <i name="e_wo_entrp">   -432.40885467 </i>
    <i name="e_0_energy">   -432.44353085 </i>
   </energy>
  </scstep>
  <scstep>
   <time name="diag">    1.71    1.72</time>
   <time name="diis">    6.63    6.66</time>
   <time name="orth">    0.09    0.09</time>
   <time name="total">   10.04   10.09</time>
   <energy>
    <i name="e_fr_energy">   -432.95341258 </i>
    <i name="e_wo_entrp">   -432.88460756 </i>
    <i name="e_0_energy">   -432.91901007 </i>
   </energy>
  </scstep>
  <scstep>
   <time name="diag">    1.72    1.73</time>
   <time name="diis">    6.62    6.65</time>
   <time name="orth">    0.08    0.09</time>
   <time name="total">   10.03   10.09</time>
   <energy>
    <i name="e_fr_energy">   -433.56891568 </i>
    <i name="e_wo_entrp">   -433.50001593 </i>
    <i name="e_0_energy">   -433.53446581 </i>
   </energy>
  </scstep>
  <scstep>
   <time name="diag">    1.73    1.74</time>
   <time name="diis">    6.64    6.67</time>
   <time name="orth">    0.08    0.09</time>
   <time name="total">   10.04   10.12</time>
   <energy>
    <i name="e_fr_energy">   -434.12146949 </i>
    <i name="e_wo_entrp">   -434.05153474 </i>
    <i name="e_0_energy">   -434.08650211 </i>
   </energy>
  </scstep>
  <scstep>
   <time name="diag">    1.72    1.73</time>
   <time name="diis">    6.89    6.93</time>
   <time name="orth">    0.09    0.09</time>
   <time name="total">   10.31   10.37</time>
   <energy>
    <i name="e_fr_energy">   -434.66414142 </i>
    <i name="e_wo_entrp">   -434.59486484 </i>
    <i name="e_0_energy">   -434.62950313 </i>
   </energy>
  </scstep>
  <scstep>
   <time name="diag">    1.73    1.73</time>
   <time name="diis">    6.97    7.01</time>
   <time name="orth">    0.08    0.10</time>
   <time name="total">   10.39   10.50</time>
   <energy>
    <i name="e_fr_energy">   -435.14951923 </i>
    <i name="e_wo_entrp">   -435.07797148 </i>
    <i name="e_0_energy">   -435.11374535 </i>
   </energy>
  </scstep>
  <scstep>
   <time name="diag">    1.73    1.74</time>
   <time name="diis">    6.73    6.77</time>
   <time name="orth">    0.09    0.09</time>
   <time name="total">   10.17   10.23</time>
   <energy>
    <i name="e_fr_energy">   -435.44535785 </i>
    <i name="e_wo_entrp">   -435.37367797 </i>
    <i name="e_0_energy">   -435.40951791 </i>
   </energy>
  </scstep>
  <scstep>
   <time name="diag">    1.72    1.73</time>
   <time name="diis">    6.60    6.63</time>
   <time name="orth">    0.09    0.09</time>
   <time name="total">   10.02   10.07</time>
   <energy>
    <i name="e_fr_energy">   -435.72592794 </i>
    <i name="e_wo_entrp">   -435.65354119 </i>
    <i name="e_0_energy">   -435.68973457 </i>
   </energy>
  </scstep>
  <scstep>
   <time name="diag">    1.72    1.73</time>
   <time name="diis">    6.71    6.75</time>
   <time name="orth">    0.08    0.09</time>
   <time name="total">   10.14   10.20</time>
   <energy>
    <i name="e_fr_energy">   -435.92021720 </i>
    <i name="e_wo_entrp">   -435.84717406 </i>
    <i name="e_0_energy">   -435.88369563 </i>
   </energy>
  </scstep>
  <scstep>
   <time name="diag">    1.72    1.73</time>
   <time name="diis">    6.77    6.81</time>
   <time name="orth">    0.09    0.10</time>
   <time name="total">   10.23   10.30</time>
   <energy>
    <i name="e_fr_energy">   -436.06609085 </i>
    <i name="e_wo_entrp">   -435.99275935 </i>
    <i name="e_0_energy">   -436.02942510 </i>
   </energy>
  </scstep>
  <scstep>
   <time name="diag">    1.72    1.73</time>
   <time name="diis">    6.84    6.87</time>
   <time name="orth">    0.09    0.10</time>
   <time name="total">   10.28   10.34</time>
   <energy>
    <i name="e_fr_energy">   -436.14833103 </i>
    <i name="e_wo_entrp">   -436.07464075 </i>
    <i name="e_0_energy">   -436.11148589 </i>
   </energy>
  </scstep>
  <scstep>
   <time name="diag">    1.72    1.73</time>
   <time name="diis">    6.82    6.85</time>
   <time name="orth">    0.09    0.09</time>
   <time name="total">   10.26   10.31</time>
   <energy>
    <i name="e_fr_energy">   -436.21987350 </i>
    <i name="e_wo_entrp">   -436.14581452 </i>
    <i name="e_0_energy">   -436.18284401 </i>
   </energy>
  </scstep>
  <scstep>
   <time name="diag">    1.72    1.73</time>
   <time name="diis">    6.82    6.85</time>
   <time name="orth">    0.08    0.10</time>
   <time name="total">   10.25   10.32</time>
   <energy>
    <i name="e_fr_energy">   -436.25381923 </i>
    <i name="e_wo_entrp">   -436.17957290 </i>
    <i name="e_0_energy">   -436.21669606 </i>
   </energy>
  </scstep>
  <scstep>
   <time name="diag">    1.72    1.73</time>
   <time name="diis">    6.70    6.76</time>
   <time name="orth">    0.09    0.09</time>
   <time name="total">   10.13   10.22</time>
   <energy>
    <i name="e_fr_energy">   -436.28378202 </i>
    <i name="e_wo_entrp">   -436.20914341 </i>
    <i name="e_0_energy">   -436.24646271 </i>
   </energy>
  </scstep>
  <scstep>
   <time name="diag">    1.72    1.73</time>
   <time name="diis">    7.05    7.10</time>
   <time name="orth">    0.09    0.10</time>
   <time name="total">   10.51   10.59</time>
   <energy>
    <i name="e_fr_energy">   -436.29476795 </i>
    <i name="e_wo_entrp">   -436.21995883 </i>
    <i name="e_0_energy">   -436.25736339 </i>
   </energy>
  </scstep>
  <scstep>
   <time name="diag">    1.72    1.73</time>
   <time name="diis">    6.83    6.86</time>
   <time name="orth">    0.08    0.11</time>
   <time name="total">   10.28   10.40</time>
   <energy>
    <i name="e_fr_energy">   -436.30710202 </i>
    <i name="e_wo_entrp">   -436.23214508 </i>
    <i name="e_0_energy">   -436.26962355 </i>
   </energy>
  </scstep>
  <scstep>
   <time name="diag">    1.72    1.73</time>
   <time name="diis">    6.76    6.80</time>
   <time name="orth">    0.09    0.09</time>
   <time name="total">   10.23   10.30</time>
   <energy>
    <i name="e_fr_energy">   -436.31546139 </i>
    <i name="e_wo_entrp">   -436.24041388 </i>
    <i name="e_0_energy">   -436.27793764 </i>
   </energy>
  </scstep>
  <scstep>
   <time name="diag">    1.70    1.71</time>
   <time name="diis">    6.90    6.93</time>
   <time name="orth">    0.08    0.09</time>
   <time name="total">   10.34   10.39</time>
   <energy>
    <i name="e_fr_energy">   -436.32746819 </i>
    <i name="e_wo_entrp">   -436.25218404 </i>
    <i name="e_0_energy">   -436.28982611 </i>
   </energy>
  </scstep>
  <scstep>
   <time name="diag">    1.70    1.71</time>
   <time name="diis">    6.56    6.59</time>
   <time name="orth">    0.09    0.09</time>
   <time name="total">   10.00   10.05</time>
   <energy>
    <i name="e_fr_energy">   -436.33363776 </i>
    <i name="e_wo_entrp">   -436.25827128 </i>
    <i name="e_0_energy">   -436.29595452 </i>
   </energy>
  </scstep>
  <scstep>
   <time name="diag">    1.70    1.71</time>
   <time name="diis">    6.21    6.23</time>
   <time name="orth">    0.08    0.10</time>
   <time name="total">    9.66    9.72</time>
   <energy>
    <i name="e_fr_energy">   -436.34054053 </i>
    <i name="e_wo_entrp">   -436.26507315 </i>
    <i name="e_0_energy">   -436.30280684 </i>
   </energy>
  </scstep>
  <scstep>
   <time name="diag">    1.70    1.71</time>
   <time name="diis">    5.43    5.45</time>
   <time name="orth">    0.08    0.09</time>
   <time name="total">    8.87    8.92</time>
   <energy>
    <i name="e_fr_energy">   -436.34288392 </i>
    <i name="e_wo_entrp">   -436.26735301 </i>
    <i name="e_0_energy">   -436.30511846 </i>
   </energy>
  </scstep>
  <scstep>
   <time name="diag">    1.70    1.71</time>
   <time name="diis">    5.57    5.59</time>
   <time name="orth">    0.09    0.09</time>
   <time name="total">    9.01    9.05</time>
   <energy>
    <i name="e_fr_energy">   -436.34531387 </i>
    <i name="e_wo_entrp">   -436.26974280 </i>
    <i name="e_0_energy">   -436.30752833 </i>
   </energy>
  </scstep>
  <scstep>
   <time name="diag">    1.71    1.71</time>
   <time name="diis">    4.84    4.86</time>
   <time name="orth">    0.08    0.09</time>
   <time name="total">    8.27    8.32</time>
   <energy>
    <i name="e_fr_energy">   -436.34644550 </i>
    <i name="e_wo_entrp">   -436.27085380 </i>
    <i name="e_0_energy">   -436.30864965 </i>
   </energy>
  </scstep>
  <scstep>
   <time name="diag">    1.70    1.71</time>
   <time name="diis">    5.56    5.58</time>
   <time name="orth">    0.09    0.09</time>
   <time name="total">    9.01    9.07</time>
   <energy>
    <i name="e_fr_energy">   -436.34858816 </i>
    <i name="e_wo_entrp">   -436.27295390 </i>
    <i name="e_0_energy">   -436.31077103 </i>
   </energy>
  </scstep>
  <scstep>
   <time name="diag">    1.72    1.73</time>
   <time name="diis">    5.56    5.59</time>
   <time name="orth">    0.08    0.09</time>
   <time name="total">    9.02    9.08</time>
   <energy>
    <i name="e_fr_energy">   -436.35074193 </i>
    <i name="e_wo_entrp">   -436.27507243 </i>
    <i name="e_0_energy">   -436.31290718 </i>
   </energy>
  </scstep>
  <scstep>
   <time name="diag">    1.70    1.71</time>
   <time name="diis">    5.91    5.94</time>
   <time name="orth">    0.09    0.09</time>
   <time name="total">    9.35    9.42</time>
   <energy>
    <i name="e_fr_energy">   -436.35293035 </i>
    <i name="e_wo_entrp">   -436.27724128 </i>
    <i name="e_0_energy">   -436.31508582 </i>
   </energy>
  </scstep>
  <scstep>
   <time name="diag">    1.71    1.72</time>
   <time name="diis">    5.25    5.28</time>
   <time name="orth">    0.09    0.10</time>
   <time name="total">    8.69    8.75</time>
   <energy>
    <i name="e_fr_energy">   -436.35416757 </i>
    <i name="e_wo_entrp">   -436.27845495 </i>
    <i name="e_0_energy">   -436.31631126 </i>
   </energy>
  </scstep>
  <scstep>
   <time name="diag">    1.70    1.71</time>
   <time name="diis">    5.47    5.50</time>
   <time name="orth">    0.08    0.10</time>
   <time name="total">    8.91    8.98</time>
   <energy>
    <i name="e_fr_energy">   -436.35509295 </i>
    <i name="e_wo_entrp">   -436.27936293 </i>
    <i name="e_0_energy">   -436.31722794 </i>
   </energy>
  </scstep>
  <scstep>
   <time name="diag">    1.70    1.71</time>
   <time name="diis">    4.27    4.31</time>
   <time name="orth">    0.08    0.09</time>
   <time name="total">    7.70    7.78</time>
   <energy>
    <i name="e_fr_energy">   -436.35542013 </i>
    <i name="e_wo_entrp">   -436.27969977 </i>
    <i name="e_0_energy">   -436.31755995 </i>
   </energy>
  </scstep>
  <scstep>
   <time name="diag">    1.70    1.71</time>
   <time name="diis">    4.85    4.88</time>
   <time name="orth">    0.08    0.11</time>
   <time name="total">    8.27    8.37</time>
   <energy>
    <i name="e_fr_energy">   -436.35586237 </i>
    <i name="e_wo_entrp">   -436.28013520 </i>
    <i name="e_0_energy">   -436.31799879 </i>
   </energy>
  </scstep>
  <scstep>
   <time name="diag">    1.70    1.71</time>
   <time name="diis">    4.24    4.26</time>
   <time name="orth">    0.08    0.09</time>
   <time name="total">    7.68    7.74</time>
   <energy>
    <i name="e_fr_energy">   -436.35619350 </i>
    <i name="e_wo_entrp">   -436.28046459 </i>
    <i name="e_0_energy">   -436.31832905 </i>
   </energy>
  </scstep>
  <scstep>
   <time name="diag">    1.71    1.72</time>
   <time name="diis">    4.12    4.14</time>
   <time name="orth">    0.09    0.09</time>
   <time name="total">    7.58    7.62</time>
   <energy>
    <i name="e_fr_energy">   -436.35646284 </i>
    <i name="e_wo_entrp">   -436.28073876 </i>
    <i name="e_0_energy">   -436.31860080 </i>
   </energy>
  </scstep>
  <scstep>
   <time name="diag">    1.72    1.73</time>
   <time name="diis">    4.07    4.09</time>
   <time name="orth">    0.09    0.09</time>
   <time name="total">    7.54    7.57</time>
   <energy>
    <i name="e_fr_energy">   -436.35666831 </i>
    <i name="e_wo_entrp">   -436.28094696 </i>
    <i name="e_0_energy">   -436.31880764 </i>
   </energy>
  </scstep>
  <scstep>
   <time name="diag">    1.70    1.71</time>
   <time name="diis">    3.83    3.84</time>
   <time name="orth">    0.08    0.09</time>
   <time name="total">    7.26    7.30</time>
   <energy>
    <i name="e_fr_energy">   -436.35677356 </i>
    <i name="e_wo_entrp">   -436.28105560 </i>
    <i name="e_0_energy">   -436.31891458 </i>
   </energy>
  </scstep>
  <scstep>
   <time name="diag">    1.70    1.71</time>
   <time name="diis">    3.71    3.72</time>
   <time name="orth">    0.08    0.10</time>
   <time name="total">    7.15    7.20</time>
   <energy>
    <i name="e_fr_energy">   -436.35688357 </i>
    <i name="e_wo_entrp">   -436.28117054 </i>
    <i name="e_0_energy">   -436.31902706 </i>
   </energy>
  </scstep>
  <scstep>
   <time name="diag">    1.71    1.72</time>
   <time name="diis">    3.50    3.51</time>
   <time name="orth">    0.08    0.08</time>
   <time name="total">    6.96    6.99</time>
   <energy>
    <i name="e_fr_energy">   -436.35693556 </i>
    <i name="e_wo_entrp">   -436.28122556 </i>
    <i name="e_0_energy">   -436.31908056 </i>
   </energy>
  </scstep>
  <scstep>
   <time name="diag">    1.70    1.71</time>
   <time name="diis">    3.41    3.43</time>
   <time name="orth">    0.09    0.09</time>
   <time name="total">    6.85    6.88</time>
   <energy>
    <i name="e_fr_energy">   -436.35697746 </i>
    <i name="e_wo_entrp">   -436.28126927 </i>
    <i name="e_0_energy">   -436.31912337 </i>
   </energy>
  </scstep>
  <scstep>
   <time name="diag">    1.72    1.73</time>
   <time name="diis">    3.31    3.32</time>
   <time name="orth">    0.08    0.08</time>
   <time name="total">    6.76    6.79</time>
   <energy>
    <i name="e_fr_energy">   -436.35700677 </i>
    <i name="e_wo_entrp">   -436.28129913 </i>
    <i name="e_0_energy">   -436.31915295 </i>
   </energy>
  </scstep>
  <scstep>
   <time name="diag">    1.71    1.72</time>
   <time name="diis">    3.24    3.25</time>
   <time name="orth">    0.08    0.09</time>
   <time name="total">    6.68    6.78</time>
   <energy>
    <i name="e_fr_energy">   -436.35703852 </i>
    <i name="e_wo_entrp">   -436.28133499 </i>
    <i name="e_0_energy">   -436.31918675 </i>
   </energy>
  </scstep>
  <scstep>
   <time name="diag">    1.70    1.71</time>
   <time name="diis">    3.36    3.39</time>
   <time name="orth">    0.08    0.09</time>
   <time name="total">    6.81    6.86</time>
   <energy>
    <i name="e_fr_energy">   -436.35706820 </i>
    <i name="e_wo_entrp">   -436.28136655 </i>
    <i name="e_0_energy">   -436.31921738 </i>
   </energy>
  </scstep>
  <scstep>
   <time name="diag">    1.70    1.71</time>
   <time name="diis">    3.24    3.25</time>
   <time name="orth">    0.08    0.09</time>
   <time name="total">    6.69    6.73</time>
   <energy>
    <i name="e_fr_energy">   -436.35708217 </i>
    <i name="e_wo_entrp">   -436.28138283 </i>
    <i name="e_0_energy">   -436.31923250 </i>
   </energy>
  </scstep>
  <scstep>
   <time name="diag">    1.71    1.72</time>
   <time name="diis">    3.06    3.08</time>
   <time name="orth">    0.09    0.09</time>
   <time name="total">    5.56    5.61</time>
   <energy>
    <i name="alphaZ">    146.83978540 </i>
    <i name="ewald"> 101571.62981990 </i>
    <i name="hartreedc">-125501.81624326 </i>
    <i name="XCdc">  -1774.38558983 </i>
    <i name="pawpsdc">  35457.96684172 </i>
    <i name="pawaedc"> -32914.48109704 </i>
    <i name="eentropy">     -0.07569808 </i>
    <i name="bandstr">  -2587.62786470 </i>
    <i name="atom">  25165.59295924 </i>
    <i name="e_fr_energy">   -436.35708665 </i>
    <i name="e_wo_entrp">   -436.28138857 </i>
    <i name="e_0_energy">   -436.31923761 </i>
   </energy>
  </scstep>
  <structure>
   <crystal>
    <varray name="basis" >
     <v>      20.00000000       0.00000000       0.00000000 </v>
     <v>       0.00000000      20.00000000       0.00000000 </v>
     <v>       0.00000000       0.00000000      24.00000000 </v>
    </varray>
    <i name="volume">   9600.00000000 </i>
    <varray name="rec_basis" >
     <v>       0.05000000       0.00000000       0.00000000 </v>
     <v>       0.00000000       0.05000000       0.00000000 </v>
     <v>       0.00000000       0.00000000       0.04166667 </v>
    </varray>
   </crystal>
   <varray name="positions" >
    <v>       0.55165692       0.57113937       0.46299241 </v>
    <v>       0.34041608       0.36918496       0.42570719 </v>
    <v>       0.55117255       0.37101411       0.56087836 </v>
    <v>       0.33429436       0.56443926       0.51921948 </v>
    <v>       0.56197563       0.49900810       0.37016656 </v>
    <v>       0.54793726       0.50302865       0.56173106 </v>
    <v>       0.54824551       0.69523083       0.46461430 </v>
    <v>       0.55227934       0.62892784       0.36863576 </v>
    <v>       0.65075607       0.69674758       0.52803451 </v>
    <v>       0.55203229       0.43569416       0.46456327 </v>
    <v>       0.55465089       0.37134223       0.37181043 </v>
    <v>       0.43335297       0.56550703       0.58657081 </v>
    <v>       0.33467662       0.43694620       0.52128140 </v>
    <v>       0.66105379       0.56432801       0.34201554 </v>
    <v>       0.33411802       0.50234491       0.61155864 </v>
    <v>       0.55033431       0.30442342       0.47039222 </v>
    <v>       0.66207848       0.43621392       0.34388619 </v>
    <v>       0.65243983       0.43480733       0.53330827 </v>
    <v>       0.43420319       0.49973533       0.49362011 </v>
    <v>       0.34388935       0.56742413       0.33047032 </v>
    <v>       0.65372561       0.31107173       0.53209815 </v>
    <v>       0.44104889       0.62969167       0.49188855 </v>
    <v>       0.34477472       0.42784906       0.33209565 </v>
    <v>       0.54947127       0.63645055       0.55624084 </v>
    <v>       0.44275324       0.37190391       0.49487247 </v>
    <v>       0.45040338       0.49716276       0.30082493 </v>
    <v>       0.65205320       0.57347920       0.53163718 </v>
    <v>       0.65768688       0.50275920       0.43922782 </v>
    <v>       0.66663445       0.49884243       0.25156101 </v>
    <v>       0.34809805       0.49548265       0.24257594 </v>
    <v>       0.65521946       0.63241348       0.43793684 </v>
    <v>       0.44613678       0.63075462       0.30403220 </v>
    <v>       0.35186398       0.61841583       0.23405278 </v>
    <v>       0.65625279       0.37218190       0.44181064 </v>
    <v>       0.34314441       0.69158650       0.33064832 </v>
    <v>       0.35383446       0.37224263       0.23695233 </v>
    <v>       0.44308215       0.56997783       0.39883125 </v>
    <v>       0.44796495       0.36462591       0.30676524 </v>
    <v>       0.46053541       0.56448124       0.21428964 </v>
    <v>       0.44439741       0.69317689       0.39539377 </v>
    <v>       0.34557245       0.30345047       0.33485831 </v>
    <v>       0.46053449       0.42858486       0.21553046 </v>
    <v>       0.44394525       0.42737129       0.40066348 </v>
    <v>       0.56323098       0.56075058       0.27560131 </v>
    <v>       0.55627782       0.49588506       0.18403153 </v>
    <v>       0.44493991       0.30273756       0.39852721 </v>
    <v>       0.56483054       0.43565181       0.27694639 </v>
    <v>       0.64740641       0.50573807       0.62165955 </v>
    <v>       0.33822570       0.49864159       0.42368010 </v>
    <v>       0.43494954       0.43979436       0.58771478 </v>
    <v>       0.63692016       0.62690387       0.62891911 </v>
    <v>       0.33897965       0.62926898       0.42207416 </v>
    <v>       0.52839194       0.56914527       0.64835762 </v>
    <v>       0.64136306       0.38466437       0.63116504 </v>
    <v>       0.53138288       0.44039477       0.64991631 </v>
    <v>       0.50929904       0.22492919       0.44151789 </v>
   </varray>
  </structure>
  <varray name="forces" >
   <v>       0.03828254       0.28956301       0.05463596 </v>
   <v>       0.02502465      -0.13258490      -0.07605534 </v>
   <v>       0.00445167      -0.11189120       0.35386855 </v>
   <v>      -0.06586070       0.00603765       0.04492579 </v>
   <v>      -0.06198661      -0.05964922       0.02251151 </v>
   <v>      -0.01713803      -0.00396441      -0.04448126 </v>
   <v>       0.05158753      -0.08902613      -0.04247986 </v>
   <v>       0.03201044       0.02011514      -0.01364736 </v>
   <v>      -0.01419805      -0.00942921       0.04731850 </v>
   <v>      -0.04765898      -0.55754824      -0.16723059 </v>
   <v>       0.01119866       0.06477327      -0.03114925 </v>
   <v>       0.00118646      -0.06216490       0.00134580 </v>
   <v>       0.06039851       0.02931056       0.03135280 </v>
   <v>      -0.02726306      -0.01351423      -0.04111154 </v>
   <v>      -0.07390894       0.02044307       0.03307140 </v>
   <v>      -0.20102475      -2.27234022      -0.60743091 </v>
   <v>       0.01936441      -0.01932770      -0.00906199 </v>
   <v>       0.05424434      -0.00648396       0.14581404 </v>
   <v>      -0.15081052      -0.08529404      -0.16340579 </v>
   <v>      -0.01428181      -0.00495408      -0.03754496 </v>
   <v>      -0.12388942       0.14804777      -0.02431627 </v>
   <v>      -0.02927772       0.05858350      -0.00938788 </v>
   <v>      -0.03503987      -0.00087575       0.05057686 </v>
   <v>      -0.09110707      -0.01786706       0.01408773 </v>
   <v>      -0.23273206       0.28628310       0.14749080 </v>
   <v>       0.01528163       0.02275048      -0.02927411 </v>
   <v>       0.02276845      -0.05990339       0.02670192 </v>
   <v>      -0.03572308      -0.05924735       0.05394856 </v>
   <v>       0.05070437      -0.00627115      -0.07443111 </v>
   <v>       0.01671263       0.10925742       0.02456391 </v>
   <v>      -0.00630069      -0.01119873      -0.01290979 </v>
   <v>      -0.01563672      -0.03556048       0.02821544 </v>
   <v>      -0.00314612      -0.01424066      -0.00941327 </v>
   <v>       0.10560580       0.00826360      -0.15338037 </v>
   <v>      -0.00591942      -0.01329519      -0.02338131 </v>
   <v>       0.02139720      -0.02712617       0.02039758 </v>
   <v>       0.00805967       0.07247283      -0.03999215 </v>
   <v>       0.07128866      -0.06918699       0.06799076 </v>
   <v>      -0.06224722      -0.01608854      -0.04486690 </v>
   <v>      -0.10048685      -0.01253734       0.06945489 </v>
   <v>      -0.03490899      -0.01309079       0.01035581 </v>
   <v>       0.04590406       0.00172222      -0.05403639 </v>
   <v>       0.19331800       0.21273816       0.02592256 </v>
   <v>      -0.00378675      -0.05413421      -0.03448672 </v>
   <v>       0.01919294       0.05729583       0.05469883 </v>
   <v>       0.67136689      -1.74878547       0.52971406 </v>
   <v>      -0.02967343       0.01436080       0.03351455 </v>
   <v>       0.06050367      -0.06696078      -0.01424992 </v>
   <v>       0.10025626       0.08356550       0.09802509 </v>
   <v>      -0.03076450      -0.05249982      -0.08243847 </v>
   <v>       0.02947854       0.04415063      -0.02020450 </v>
   <v>       0.01830870      -0.00210266       0.01700366 </v>
   <v>       0.02586124       0.02433004      -0.02426070 </v>
   <v>       0.01609523      -0.00325326      -0.01210371 </v>
   <v>       0.01781173       0.08817634      -0.00725486 </v>
   <v>      -0.29289354       4.05015730      -0.10352005 </v>
  </varray>
  <varray name="stress" >
   <v>      -0.12680880      -0.10347917      -0.30376238 </v>
   <v>      -0.10347916      -1.22712042       0.02400870 </v>
   <v>      -0.30376238       0.02400870      -0.04698270 </v>
  </varray>
  <energy>
   <i name="e_fr_energy">   -448.22987918 </i>
   <i name="e_wo_entrp">   -448.15418110 </i>
   <i name="e_0_energy">   -448.19203014 </i>
  </energy>
  <time name="totalsc">  682.70  687.41</time>
 </calculation>
 <calculation>
  <scstep>
   <time name="dav">    8.33    8.39</time>
   <time name="total">    9.91   10.00</time>
   <energy>
    <i name="alphaZ">    146.83978540 </i>
    <i name="ewald"> 101552.30581798 </i>
    <i name="hartreedc">-125482.08653497 </i>
    <i name="XCdc">  -1774.35540003 </i>
    <i name="pawpsdc">  35457.96796859 </i>
    <i name="pawaedc"> -32914.48219535 </i>
    <i name="eentropy">     -0.07506574 </i>
    <i name="bandstr">  -2588.29646709 </i>
    <i name="atom">  25165.59295924 </i>
    <i name="e_fr_energy">   -436.58913198 </i>
    <i name="e_wo_entrp">   -436.51406624 </i>
    <i name="e_0_energy">   -436.55159911 </i>
   </energy>
  </scstep>
  <scstep>
   <time name="diag">    1.70    1.71</time>
   <time name="diis">    6.10    6.13</time>
   <time name="orth">    0.08    0.09</time>
   <time name="total">    9.49    9.55</time>
   <energy>
    <i name="e_fr_energy">   -436.60901294 </i>
    <i name="e_wo_entrp">   -436.53317858 </i>
    <i name="e_0_energy">   -436.57109576 </i>
   </energy>
  </scstep>
  <scstep>
   <time name="diag">    1.70    1.71</time>
   <time name="diis">    6.29    6.32</time>
   <time name="orth">    0.09    0.09</time>
   <time name="total">    9.69    9.75</time>
   <energy>
    <i name="e_fr_energy">   -436.59991122 </i>
    <i name="e_wo_entrp">   -436.52468424 </i>
    <i name="e_0_energy">   -436.56229773 </i>
   </energy>
  </scstep>
  <scstep>
   <time name="diag">    1.70    1.71</time>
   <time name="diis">    6.14    6.17</time>
   <time name="orth">    0.09    0.10</time>
   <time name="total">    9.55    9.60</time>
   <energy>
    <i name="e_fr_energy">   -436.60254744 </i>
    <i name="e_wo_entrp">   -436.52747687 </i>
    <i name="e_0_energy">   -436.56501216 </i>
   </energy>
  </scstep>
  <scstep>
   <time name="diag">    1.70    1.71</time>
   <time name="diis">    6.15    6.17</time>
   <time name="orth">    0.08    0.09</time>
   <time name="total">    9.53    9.61</time>
   <energy>
    <i name="e_fr_energy">   -436.60331474 </i>
    <i name="e_wo_entrp">   -436.52834492 </i>
    <i name="e_0_energy">   -436.56582983 </i>
   </energy>
  </scstep>
  <scstep>
   <time name="diag">    1.70    1.71</time>
   <time name="diis">    6.07    6.10</time>
   <time name="orth">    0.08    0.08</time>
   <time name="total">    9.46    9.51</time>
   <energy>
    <i name="e_fr_energy">   -436.59795668 </i>
    <i name="e_wo_entrp">   -436.52253395 </i>
    <i name="e_0_energy">   -436.56024531 </i>
   </energy>
  </scstep>
  <scstep>
   <time name="diag">    1.71    1.72</time>
   <time name="diis">    6.35    6.38</time>
   <time name="orth">    0.10    0.10</time>
   <time name="total">    9.76    9.81</time>
   <energy>
    <i name="e_fr_energy">   -436.59649857 </i>
    <i name="e_wo_entrp">   -436.52126387 </i>
    <i name="e_0_energy">   -436.55888122 </i>
   </energy>
  </scstep>
  <scstep>
   <time name="diag">    1.71    1.72</time>
   <time name="diis">    6.40    6.42</time>
   <time name="orth">    0.09    0.09</time>
   <time name="total">    9.79    9.85</time>
   <energy>
    <i name="e_fr_energy">   -436.59611269 </i>
    <i name="e_wo_entrp">   -436.52094198 </i>
    <i name="e_0_energy">   -436.55852734 </i>
   </energy>
  </scstep>
  <scstep>
   <time name="diag">    1.71    1.72</time>
   <time name="diis">    6.08    6.11</time>
   <time name="orth">    0.09    0.09</time>
   <time name="total">    9.48    9.53</time>
   <energy>
    <i name="e_fr_energy">   -436.59560849 </i>
    <i name="e_wo_entrp">   -436.52040747 </i>
    <i name="e_0_energy">   -436.55800798 </i>
   </energy>
  </scstep>
  <scstep>
   <time name="diag">    1.72    1.73</time>
   <time name="diis">    7.27    7.30</time>
   <time name="orth">    0.09    0.10</time>
   <time name="total">   10.67   10.72</time>
   <energy>
    <i name="e_fr_energy">   -436.59558593 </i>
    <i name="e_wo_entrp">   -436.52042169 </i>
    <i name="e_0_energy">   -436.55800381 </i>
   </energy>
  </scstep>
  <scstep>
   <time name="diag">    1.71    1.72</time>
   <time name="diis">    6.16    6.20</time>
   <time name="orth">    0.08    0.09</time>
   <time name="total">    9.54    9.61</time>
   <energy>
    <i name="e_fr_energy">   -436.59558013 </i>
    <i name="e_wo_entrp">   -436.52037104 </i>
    <i name="e_0_energy">   -436.55797559 </i>
   </energy>
  </scstep>
  <scstep>
   <time name="diag">    1.71    1.73</time>
   <time name="diis">    5.12    5.15</time>
   <time name="orth">    0.08    0.09</time>
   <time name="total">    8.52    8.59</time>
   <energy>
    <i name="e_fr_energy">   -436.59556213 </i>
    <i name="e_wo_entrp">   -436.52043825 </i>
    <i name="e_0_energy">   -436.55800019 </i>
   </energy>
  </scstep>
  <scstep>
   <time name="diag">    1.73    1.74</time>
   <time name="diis">    4.30    4.32</time>
   <time name="orth">    0.09    0.09</time>
   <time name="total">    6.82    6.86</time>
   <energy>
    <i name="alphaZ">    146.83978540 </i>
    <i name="ewald"> 101552.30581798 </i>
    <i name="hartreedc">-125483.35124528 </i>
    <i name="XCdc">  -1774.31831295 </i>
    <i name="pawpsdc">  35467.50877703 </i>
    <i name="pawaedc"> -32923.98931090 </i>
    <i name="eentropy">     -0.07517209 </i>
    <i name="bandstr">  -2587.10885772 </i>
    <i name="atom">  25165.59295924 </i>
    <i name="e_fr_energy">   -436.59555929 </i>
    <i name="e_wo_entrp">   -436.52038721 </i>
    <i name="e_0_energy">   -436.55797325 </i>
   </energy>
  </scstep>
  <structure>
   <crystal>
    <varray name="basis" >
     <v>      20.00000000       0.00000000       0.00000000 </v>
     <v>       0.00000000      20.00000000       0.00000000 </v>
     <v>       0.00000000       0.00000000      24.00000000 </v>
    </varray>
    <i name="volume">   9600.00000000 </i>
    <varray name="rec_basis" >
     <v>       0.05000000       0.00000000       0.00000000 </v>
     <v>       0.00000000       0.05000000       0.00000000 </v>
     <v>       0.00000000       0.00000000       0.04166667 </v>
    </varray>
   </crystal>
   <varray name="positions" >
    <v>       0.55167539       0.57127906       0.46301437 </v>
    <v>       0.34042815       0.36912099       0.42567661 </v>
    <v>       0.55117470       0.37096013       0.56102062 </v>
    <v>       0.33426258       0.56444217       0.51923754 </v>
    <v>       0.56194572       0.49897932       0.37017561 </v>
    <v>       0.54792899       0.50302674       0.56171318 </v>
    <v>       0.54827040       0.69518788       0.46459723 </v>
    <v>       0.55229478       0.62893754       0.36863027 </v>
    <v>       0.65074922       0.69674303       0.52805354 </v>
    <v>       0.55200930       0.43542518       0.46449604 </v>
    <v>       0.55465629       0.37137348       0.37179791 </v>
    <v>       0.43335354       0.56547704       0.58657135 </v>
    <v>       0.33470576       0.43696034       0.52129401 </v>
    <v>       0.66104063       0.56432149       0.34199901 </v>
    <v>       0.33408236       0.50235477       0.61157194 </v>
    <v>       0.55023733       0.30332718       0.47014802 </v>
    <v>       0.66208782       0.43620459       0.34388255 </v>
    <v>       0.65246600       0.43480420       0.53336689 </v>
    <v>       0.43413043       0.49969419       0.49355442 </v>
    <v>       0.34388246       0.56742174       0.33045523 </v>
    <v>       0.65366584       0.31114315       0.53208837 </v>
    <v>       0.44103477       0.62971993       0.49188477 </v>
    <v>       0.34475781       0.42784863       0.33211598 </v>
    <v>       0.54942732       0.63644193       0.55624651 </v>
    <v>       0.44264096       0.37204202       0.49493177 </v>
    <v>       0.45041076       0.49717374       0.30081316 </v>
    <v>       0.65206419       0.57345030       0.53164791 </v>
    <v>       0.65766964       0.50273062       0.43924951 </v>
    <v>       0.66665891       0.49883940       0.25153108 </v>
    <v>       0.34810611       0.49553536       0.24258582 </v>
    <v>       0.65521642       0.63240808       0.43793165 </v>
    <v>       0.44612924       0.63073746       0.30404354 </v>
    <v>       0.35186247       0.61840896       0.23404900 </v>
    <v>       0.65630373       0.37218588       0.44174898 </v>
    <v>       0.34314156       0.69158009       0.33063892 </v>
    <v>       0.35384478       0.37222954       0.23696053 </v>
    <v>       0.44308604       0.57001279       0.39881517 </v>
    <v>       0.44799934       0.36459253       0.30679257 </v>
    <v>       0.46050538       0.56447348       0.21427160 </v>
    <v>       0.44434893       0.69317084       0.39542169 </v>
    <v>       0.34555561       0.30344415       0.33486247 </v>
    <v>       0.46055663       0.42858569       0.21550874 </v>
    <v>       0.44403851       0.42747392       0.40067390 </v>
    <v>       0.56322915       0.56072447       0.27558745 </v>
    <v>       0.55628708       0.49591270       0.18405352 </v>
    <v>       0.44526380       0.30189390       0.39874017 </v>
    <v>       0.56481622       0.43565874       0.27695986 </v>
    <v>       0.64743560       0.50570577       0.62165382 </v>
    <v>       0.33827407       0.49868190       0.42371951 </v>
    <v>       0.43493469       0.43976903       0.58768164 </v>
    <v>       0.63693438       0.62692517       0.62891099 </v>
    <v>       0.33898848       0.62926797       0.42208100 </v>
    <v>       0.52840441       0.56915701       0.64834786 </v>
    <v>       0.64137082       0.38466280       0.63116018 </v>
    <v>       0.53139147       0.44043731       0.64991339 </v>
    <v>       0.50915774       0.22688309       0.44147627 </v>
   </varray>
  </structure>
  <varray name="forces" >
   <v>       0.03546544       0.21736343       0.05395881 </v>
   <v>       0.08958537      -0.13822364      -0.09880541 </v>
   <v>      -0.01451178      -0.11431911       0.29803877 </v>
   <v>      -0.05506147       0.00825449       0.04135326 </v>
   <v>      -0.04590164      -0.05878506       0.02674403 </v>
   <v>      -0.02066338      -0.02302804      -0.04679991 </v>
   <v>       0.04238232      -0.05791013      -0.03988343 </v>
   <v>       0.03253772       0.01887801      -0.02219987 </v>
   <v>      -0.02093438      -0.01784474       0.04752805 </v>
   <v>      -0.01835195      -0.56644227      -0.12341613 </v>
   <v>       0.02194300       0.03231102      -0.04489645 </v>
   <v>      -0.00411864      -0.05974388      -0.00505677 </v>
   <v>       0.04047724       0.01922137       0.02665373 </v>
   <v>      -0.03270867      -0.02216194      -0.03449073 </v>
   <v>      -0.07151310       0.01608826       0.03314821 </v>
   <v>       0.05065273      -1.47921401      -0.31219548 </v>
   <v>       0.01493884      -0.01208985      -0.00046096 </v>
   <v>       0.01630784      -0.02028062       0.11615022 </v>
   <v>      -0.13099660      -0.05568530      -0.14292645 </v>
   <v>      -0.01456986      -0.00085885      -0.03542186 </v>
   <v>      -0.09482647       0.11825009      -0.02509561 </v>
   <v>      -0.03166967       0.05751452      -0.00494525 </v>
   <v>      -0.01135561      -0.02090853       0.04154350 </v>
   <v>      -0.07041195      -0.01648203       0.01074122 </v>
   <v>      -0.19372035       0.22111633       0.14510862 </v>
   <v>       0.01937024       0.00813366      -0.03064170 </v>
   <v>       0.00798874      -0.05070536       0.02123994 </v>
   <v>      -0.03762092      -0.05952773       0.04224227 </v>
   <v>       0.04050160      -0.00692520      -0.07088223 </v>
   <v>       0.00998398       0.08649561       0.02576747 </v>
   <v>       0.00295548      -0.01562871      -0.01178583 </v>
   <v>      -0.01686055      -0.02686520       0.02372259 </v>
   <v>      -0.00552439      -0.00489241      -0.01291679 </v>
   <v>       0.08753150       0.01024611      -0.12323401 </v>
   <v>      -0.00360937      -0.01554890      -0.02115219 </v>
   <v>       0.02675297      -0.01730719       0.03257306 </v>
   <v>       0.01035639       0.03951951      -0.03403837 </v>
   <v>       0.04392160      -0.09786854       0.09498348 </v>
   <v>      -0.05316952      -0.01999580      -0.04575418 </v>
   <v>      -0.08932300       0.00552381       0.06462920 </v>
   <v>      -0.02080631      -0.01341818       0.02164510 </v>
   <v>       0.04147988      -0.00593578      -0.02694000 </v>
   <v>       0.15792838       0.07594321       0.03635567 </v>
   <v>      -0.00694730      -0.04870278      -0.03000676 </v>
   <v>       0.02822013       0.06234632       0.04248177 </v>
   <v>       0.54292512      -1.38661454       0.42465581 </v>
   <v>      -0.03121047       0.00841323       0.02925376 </v>
   <v>       0.05898244      -0.05875310      -0.01314525 </v>
   <v>       0.09027348       0.06584947       0.09129345 </v>
   <v>      -0.02298656      -0.05300930      -0.09530526 </v>
[...]
   <v>       0.01253500       0.03348408       0.02102025 </v>
   <v>       0.01570511      -0.00833276       0.01038718 </v>
   <v>       0.01400863      -0.00331520       0.00642129 </v>
   <v>       0.00464772       0.01304714       0.00170163 </v>
   <v>      -0.01253228      -0.00417352      -0.01219186 </v>
   <v>      -0.01056148      -0.00714312      -0.00668650 </v>
   <v>      -0.00715610      -0.01836114      -0.00102060 </v>
   <v>      -0.00869284       0.00464254       0.05041497 </v>
   <v>      -0.05251975      -0.02005757       0.01925790 </v>
   <v>      -0.01206620      -0.01122522      -0.00348740 </v>
   <v>       0.00090838      -0.01415671       0.03953360 </v>
   <v>      -0.00209259      -0.00392633       0.01099147 </v>
   <v>       0.01032806       0.00954628      -0.00126365 </v>
   <v>      -0.21326170      -0.12591570      -0.15614680 </v>
   <v>       0.02158390      -0.00832239       0.00063259 </v>
   <v>      -0.02423951       0.04156992       0.03184415 </v>
   <v>       0.01377480       0.03173494       0.01534322 </v>
   <v>      -0.01425219      -0.01803327       0.01047715 </v>
   <v>       0.05618208      -0.05534668       0.04259511 </v>
   <v>      -0.00132503      -0.01532101      -0.00946227 </v>
   <v>      -0.01419257       0.02986668      -0.03365779 </v>
   <v>      -0.00657275      -0.00497830      -0.00682150 </v>
   <v>       0.04329456      -0.03717936      -0.02247912 </v>
   <v>       0.00530824      -0.02373150      -0.01313677 </v>
   <v>       0.01148036      -0.02721551       0.00549945 </v>
   <v>       0.02809800       0.00989258      -0.00053484 </v>
   <v>       0.00304424       0.00865851       0.02087775 </v>
   <v>      -0.01552243      -0.01481329      -0.02280175 </v>
   <v>      -0.00502443       0.00584218       0.00103432 </v>
   <v>       0.00009456      -0.00535827      -0.00044952 </v>
   <v>      -0.01650930      -0.00018424       0.00428535 </v>
   <v>       0.05582113       0.00959366      -0.04912058 </v>
   <v>      -0.00074163      -0.02476084      -0.00376471 </v>
   <v>      -0.00504889       0.01450237      -0.02811001 </v>
   <v>      -0.00084389       0.00773024       0.00196866 </v>
   <v>       0.00334492       0.07340675      -0.02122518 </v>
   <v>      -0.00422845      -0.00625008      -0.02364591 </v>
   <v>      -0.00541933      -0.00883585       0.00830848 </v>
   <v>      -0.04681182      -0.01347510      -0.03924257 </v>
   <v>      -0.00009677       0.00609463      -0.03097346 </v>
   <v>      -0.02273861      -0.02153448      -0.02210598 </v>
   <v>      -0.00207593      -0.00708141       0.00191930 </v>
   <v>       0.01362297       0.01856076      -0.01532130 </v>
   <v>       0.20761842      -0.12713095       0.19321057 </v>
   <v>       0.01181027      -0.02186955      -0.00756949 </v>
   <v>       0.01383008       0.01603173       0.01623721 </v>
   <v>      -0.02202726       0.04513790       0.01139686 </v>
   <v>      -0.00309310       0.01393834       0.01789473 </v>
   <v>       0.00050643       0.00097128      -0.00644012 </v>
   <v>       0.00252147       0.00435513      -0.01613345 </v>
   <v>       0.01446537      -0.00001364      -0.00615274 </v>
   <v>      -0.00119120       0.01539888       0.03498757 </v>
   <v>      -0.00622129      -0.01215861       0.00472931 </v>
   <v>      -0.03268438       0.23295987      -0.04435856 </v>
  </varray>
  <varray name="stress" >
   <v>      -0.03104922      -0.03503307       0.05136616 </v>
   <v>      -0.03503307      -0.20565126       0.00284525 </v>
   <v>       0.05136616       0.00284525       0.10857035 </v>
  </varray>
  <energy>
   <i name="e_fr_energy">   -449.23553810 </i>
   <i name="e_wo_entrp">   -449.16275743 </i>
   <i name="e_0_energy">   -449.19914777 </i>
  </energy>
  <time name="totalsc">   42.24   42.78</time>
 </calculation>
 <structure>
  <crystal>
   <varray name="basis" >
    <v>      20.00000000       0.00000000       0.00000000 </v>
    <v>       0.00000000      20.00000000       0.00000000 </v>
    <v>       0.00000000       0.00000000      24.00000000 </v>
   </varray>
   <i name="volume">   9600.00000000 </i>
   <varray name="rec_basis" >
    <v>       0.05000000       0.00000000       0.00000000 </v>
    <v>       0.00000000       0.05000000       0.00000000 </v>
    <v>       0.00000000       0.00000000       0.04166667 </v>
   </varray>
  </crystal>
  <varray name="positions" >
   <v>       0.55156723       0.57173442       0.46308477 </v>
   <v>       0.34096809       0.36865640       0.42553539 </v>
   <v>       0.55182759       0.37047131       0.56227579 </v>
   <v>       0.33388043       0.56435457       0.51938332 </v>
   <v>       0.56154526       0.49825081       0.37052202 </v>
   <v>       0.54769204       0.50240560       0.56143003 </v>
   <v>       0.54857689       0.69499565       0.46440844 </v>
   <v>       0.55232296       0.62912217       0.36877282 </v>
   <v>       0.65060199       0.69630051       0.52856415 </v>
   <v>       0.55252289       0.43072659       0.46448001 </v>
   <v>       0.55584845       0.37087611       0.37105298 </v>
   <v>       0.43326948       0.56506349       0.58624160 </v>
   <v>       0.33466299       0.43686606       0.52166190 </v>
   <v>       0.66037455       0.56398924       0.34210421 </v>
   <v>       0.33359472       0.50245866       0.61165458 </v>
   <v>       0.55469281       0.30408476       0.47194916 </v>
   <v>       0.66230012       0.43607151       0.34385265 </v>
   <v>       0.65310944       0.43413493       0.53391601 </v>
   <v>       0.43378880       0.49960685       0.49329836 </v>
   <v>       0.34374387       0.56708020       0.33039062 </v>
   <v>       0.65534963       0.31113384       0.53336577 </v>
   <v>       0.44066275       0.62964648       0.49185901 </v>
   <v>       0.34523397       0.42734283       0.33231502 </v>
   <v>       0.54899015       0.63605864       0.55628863 </v>
   <v>       0.44214175       0.37280379       0.49591077 </v>
   <v>       0.45057889       0.49669639       0.30065104 </v>
   <v>       0.65181014       0.57299976       0.53146938 </v>
   <v>       0.65682987       0.50206961       0.43986389 </v>
   <v>       0.66678513       0.49855506       0.25152503 </v>
   <v>       0.34793779       0.49550108       0.24291244 </v>
   <v>       0.65524248       0.63191846       0.43793227 </v>
   <v>       0.44620981       0.63016975       0.30402544 </v>
   <v>       0.35176542       0.61834005       0.23404897 </v>
   <v>       0.65816925       0.37264166       0.44161131 </v>
   <v>       0.34314924       0.69121712       0.33041881 </v>
   <v>       0.35386265       0.37252815       0.23679082 </v>
   <v>       0.44314730       0.56967910       0.39873281 </v>
   <v>       0.44839451       0.36400764       0.30637000 </v>
   <v>       0.45983230       0.56382686       0.21411979 </v>
   <v>       0.44382132       0.69302793       0.39561062 </v>
   <v>       0.34519622       0.30319567       0.33509295 </v>
   <v>       0.46116040       0.42795446       0.21538844 </v>
   <v>       0.44475163       0.42772173       0.40054911 </v>
   <v>       0.56296787       0.56013323       0.27574068 </v>
   <v>       0.55633718       0.49674822       0.18422911 </v>
   <v>       0.44506807       0.30095802       0.39855078 </v>
   <v>       0.56472998       0.43541605       0.27698916 </v>
   <v>       0.64757074       0.50565309       0.62138084 </v>
   <v>       0.33866176       0.49839960       0.42387845 </v>
   <v>       0.43479667       0.43947935       0.58758596 </v>
   <v>       0.63710203       0.62739073       0.62849405 </v>
   <v>       0.33888216       0.62890097       0.42206976 </v>
   <v>       0.52894512       0.56932654       0.64791954 </v>
   <v>       0.64169760       0.38447817       0.63176363 </v>
   <v>       0.53143400       0.44136001       0.65028340 </v>
   <v>       0.50078831       0.24141957       0.43603914 </v>
  </varray>
 </structure>
 <varray name="forces" >
  <v>       0.04050600       0.05934313      -0.02086549 </v>
  <v>      -0.09717677       0.02092132       0.02639701 </v>
  <v>       0.02314351       0.01840995       0.03207158 </v>
  <v>       0.01034905      -0.04811578       0.01470562 </v>
  <v>      -0.02690238       0.03341296       0.01895821 </v>
  <v>       0.00248431       0.01957985      -0.01965674 </v>
  <v>       0.00951721      -0.02373039       0.01179376 </v>
  <v>       0.01519342      -0.03950441      -0.00841375 </v>
  <v>      -0.00607851       0.03402416       0.00592394 </v>
  <v>       0.04203724      -0.00062490       0.04303689 </v>
  <v>      -0.00863243      -0.05446917       0.00077872 </v>
  <v>      -0.00128029       0.00396890      -0.02846333 </v>
  <v>      -0.02954084       0.05705837       0.01688534 </v>
  <v>      -0.00386152      -0.03010617       0.01965120 </v>
  <v>      -0.01715896      -0.02105114       0.00369899 </v>
  <v>      -0.17902773      -0.01333266      -0.23532298 </v>
  <v>       0.00704669       0.06020745      -0.01259266 </v>
  <v>      -0.01872047      -0.05497230      -0.00513149 </v>
  <v>      -0.02233375       0.01967665      -0.00993821 </v>
  <v>       0.00276930      -0.03922414       0.02134464 </v>
  <v>       0.06712051      -0.04635908       0.10336360 </v>
  <v>      -0.01410203       0.02617022       0.00160241 </v>
  <v>      -0.03158864      -0.08189070      -0.01003381 </v>
  <v>      -0.01419409      -0.03154251       0.01686641 </v>
  <v>      -0.01725155      -0.10048585       0.01634387 </v>
  <v>      -0.01294164       0.01725348      -0.00800341 </v>
  <v>      -0.03654157      -0.00444545       0.01319507 </v>
  <v>       0.00175213      -0.03018765      -0.01302943 </v>
  <v>      -0.01899904      -0.00850320       0.03022434 </v>
  <v>       0.00891301      -0.03229533       0.00172567 </v>
  <v>      -0.02657831      -0.03180109      -0.00629866 </v>
  <v>       0.03038851      -0.04208736      -0.01045229 </v>
  <v>      -0.00374737       0.00586215      -0.01500250 </v>
  <v>       0.02063322      -0.00679001      -0.01034148 </v>
  <v>       0.00124175       0.01436338       0.00909453 </v>
  <v>       0.00413252      -0.01637406       0.00443133 </v>
  <v>       0.00437859      -0.00924104      -0.02339988 </v>
  <v>      -0.01474400       0.02715224      -0.10351663 </v>
  <v>      -0.00031402       0.00554629       0.00223851 </v>
  <v>       0.02157436      -0.03762802      -0.04470056 </v>
  <v>      -0.04097858      -0.00833307      -0.05437836 </v>
  <v>      -0.00201512       0.01495431      -0.01915231 </v>
  <v>       0.01404900       0.11907639       0.00768839 </v>
  <v>       0.00771274      -0.00471067       0.01565266 </v>
  <v>       0.01019858      -0.01724476       0.00914305 </v>
  <v>       0.19014191      -0.05626391       0.12264336 </v>
  <v>      -0.03538111       0.03488098       0.01105176 </v>
  <v>       0.02872555       0.00127630      -0.01466256 </v>
  <v>       0.04405896      -0.01053282      -0.00685826 </v>
  <v>       0.00388706       0.03637271       0.01270838 </v>
  <v>       0.01376063      -0.00777630       0.00867266 </v>
  <v>      -0.01096705      -0.04036950       0.02975369 </v>
  <v>      -0.01302275       0.02393771      -0.02676759 </v>
  <v>       0.00947276      -0.06085402       0.03119162 </v>
  <v>       0.04374374      -0.01577736       0.01475605 </v>
  <v>       0.02514825       0.37317592       0.02938908 </v>
 </varray>
 <varray name="stress" >
  <v>       0.05014737       0.00640519       0.04455828 </v>
  <v>       0.00640519      -0.29485597       0.00196498 </v>
  <v>       0.04455828       0.00196498       0.07932718 </v>
 </varray>
 <energy>
  <i name="e_fr_energy">   -449.22304075 </i>
  <i name="e_wo_entrp">   -449.22304075 </i>
  <i name="e_0_energy">   -449.22304075 </i>
 </energy>
 <time name="totalsc">    0.01    0.13</time>
 <structure>
  <crystal>
   <varray name="basis" >
    <v>      20.00000000       0.00000000       0.00000000 </v>
    <v>       0.00000000      20.00000000       0.00000000 </v>
    <v>       0.00000000       0.00000000      24.00000000 </v>
   </varray>
   <i name="volume">   9600.00000000 </i>
   <varray name="rec_basis" >
    <v>       0.05000000       0.00000000       0.00000000 </v>
    <v>       0.00000000       0.05000000       0.00000000 </v>
    <v>       0.00000000       0.00000000       0.04166667 </v>
   </varray>
  </crystal>
  <varray name="positions" >
   <v>       0.55155267       0.57173880       0.46308594 </v>
   <v>       0.34101710       0.36854953       0.42550886 </v>
   <v>       0.55182344       0.37049958       0.56224625 </v>
   <v>       0.33388871       0.56437920       0.51939189 </v>
   <v>       0.56157653       0.49829993       0.37051578 </v>
   <v>       0.54767679       0.50243862       0.56143634 </v>
   <v>       0.54857270       0.69500330       0.46440131 </v>
   <v>       0.55232403       0.62915643       0.36878600 </v>
   <v>       0.65060259       0.69630787       0.52854290 </v>
   <v>       0.55244379       0.43076226       0.46445921 </v>
   <v>       0.55581749       0.37087604       0.37105185 </v>
   <v>       0.43326665       0.56506495       0.58626322 </v>
   <v>       0.33467287       0.43687452       0.52163221 </v>
   <v>       0.66040928       0.56399642       0.34207323 </v>
   <v>       0.33361529       0.50245770       0.61165430 </v>
   <v>       0.55457662       0.30397269       0.47197163 </v>
   <v>       0.66228421       0.43604865       0.34384683 </v>
   <v>       0.65305163       0.43414975       0.53390202 </v>
   <v>       0.43377125       0.49964715       0.49329504 </v>
   <v>       0.34373388       0.56712766       0.33038420 </v>
   <v>       0.65526077       0.31115211       0.53331235 </v>
   <v>       0.44068534       0.62963887       0.49186532 </v>
   <v>       0.34527318       0.42743109       0.33233083 </v>
   <v>       0.54901441       0.63609338       0.55628550 </v>
   <v>       0.44212669       0.37278634       0.49590549 </v>
   <v>       0.45059461       0.49672706       0.30067346 </v>
   <v>       0.65185291       0.57301248       0.53147784 </v>
   <v>       0.65681975       0.50212622       0.43984398 </v>
   <v>       0.66678593       0.49855548       0.25149597 </v>
   <v>       0.34793273       0.49552130       0.24290953 </v>
   <v>       0.65526413       0.63197022       0.43792917 </v>
   <v>       0.44619637       0.63023407       0.30402037 </v>
   <v>       0.35177298       0.61836104       0.23404193 </v>
   <v>       0.65814718       0.37268894       0.44155316 </v>
   <v>       0.34314041       0.69123740       0.33042943 </v>
   <v>       0.35388334       0.37251549       0.23681882 </v>
   <v>       0.44315536       0.56971027       0.39874820 </v>
   <v>       0.44840125       0.36396014       0.30647391 </v>
   <v>       0.45986399       0.56384927       0.21411414 </v>
   <v>       0.44382001       0.69303623       0.39563487 </v>
   <v>       0.34523092       0.30317541       0.33512815 </v>
   <v>       0.46112551       0.42796196       0.21543380 </v>
   <v>       0.44473111       0.42757415       0.40050654 </v>
   <v>       0.56297612       0.56017041       0.27571563 </v>
   <v>       0.55634338       0.49672217       0.18423283 </v>
   <v>       0.44518889       0.30075964       0.39865539 </v>
   <v>       0.56474153       0.43542333       0.27698605 </v>
   <v>       0.64756493       0.50564575       0.62138178 </v>
   <v>       0.33864809       0.49843158       0.42387735 </v>
   <v>       0.43477862       0.43946330       0.58753813 </v>
   <v>       0.63708913       0.62739969       0.62851907 </v>
   <v>       0.33890930       0.62894651       0.42205683 </v>
   <v>       0.52892556       0.56932083       0.64793566 </v>
   <v>       0.64167879       0.38446034       0.63170083 </v>
   <v>       0.53142914       0.44132762       0.65028049 </v>
   <v>       0.50086485       0.24120831       0.43609378 </v>
  </varray>
 </structure>
 <varray name="forces" >
  <v>       0.04525307       0.06015213      -0.02001201 </v>
  <v>      -0.09540271       0.02166599       0.02646701 </v>
  <v>       0.01537045       0.01651571       0.03440092 </v>
  <v>       0.00982500      -0.04842296       0.01491635 </v>
  <v>      -0.03092593       0.02879169       0.01765376 </v>
  <v>       0.00287156       0.01728334      -0.01964616 </v>
  <v>       0.00975763      -0.02241390       0.01208307 </v>
  <v>       0.01626259      -0.04134422      -0.01007964 </v>
  <v>      -0.00427785       0.03564607       0.00784311 </v>
  <v>       0.04719614      -0.01126988       0.04324147 </v>
  <v>      -0.00616955      -0.05068070       0.00170295 </v>
  <v>      -0.00207004       0.00321463      -0.03056158 </v>
  <v>      -0.03139230       0.05622911       0.01847052 </v>
  <v>      -0.00629063      -0.03066613       0.02008527 </v>
  <v>      -0.01728174      -0.02150798       0.00348754 </v>
  <v>      -0.14272417       0.02578823      -0.22560750 </v>
  <v>       0.00691029       0.06126125      -0.01158900 </v>
  <v>      -0.01439945      -0.05254162      -0.00820311 </v>
  <v>      -0.01974540       0.01303913      -0.01292439 </v>
  <v>       0.00484547      -0.04283183       0.02137128 </v>
  <v>       0.07498090      -0.05189213       0.10141904 </v>
  <v>      -0.01549682       0.02738587       0.00328423 </v>
  <v>      -0.03510943      -0.08966188      -0.00989398 </v>
  <v>      -0.01349953      -0.03341397       0.01815719 </v>
  <v>      -0.02008790      -0.09252033       0.01657289 </v>
  <v>      -0.01326200       0.01656358      -0.00865944 </v>
  <v>      -0.04079783      -0.00491978       0.01249689 </v>
  <v>       0.00245965      -0.03243720      -0.01120329 </v>
  <v>      -0.01977701      -0.00869539       0.03216515 </v>
  <v>       0.01073076      -0.03247468       0.00282116 </v>
  <v>      -0.02977574      -0.03580132      -0.00538323 </v>
  <v>       0.03163622      -0.04643598      -0.01000342 </v>
  <v>      -0.00267800       0.00482882      -0.01536258 </v>
  <v>       0.00917094      -0.01181015      -0.00455165 </v>
  <v>      -0.00000297       0.01758327       0.00841956 </v>
  <v>       0.00495963      -0.01570886       0.00748846 </v>
  <v>       0.00361368      -0.01260421      -0.02702565 </v>
  <v>      -0.01653755       0.02525837      -0.10911272 </v>
  <v>      -0.00124267       0.00519222       0.00371199 </v>
  <v>       0.02287779      -0.03513865      -0.04530967 </v>
  <v>      -0.03782280      -0.00539753      -0.05386404 </v>
  <v>      -0.00059384       0.01408065      -0.01961583 </v>
  <v>       0.01727224       0.12805056       0.01785344 </v>
  <v>       0.00899947      -0.00761396       0.01785606 </v>
  <v>       0.00806019      -0.01769861       0.00880271 </v>
  <v>       0.15472887      -0.02868386       0.09164054 </v>
  <v>      -0.03642189       0.03650151       0.01290300 </v>
  <v>       0.02796016       0.00302010      -0.01525597 </v>
  <v>       0.04671810      -0.01395231      -0.00802097 </v>
  <v>       0.00671279       0.03720885       0.01508971 </v>
  <v>       0.01261875      -0.00899122       0.00553540 </v>
  <v>      -0.01306742      -0.04212789       0.03159546 </v>
  <v>      -0.01306033       0.02369695      -0.02702729 </v>
  <v>       0.01151703      -0.06039844       0.03780351 </v>
  <v>       0.04279947      -0.01416968       0.01076124 </v>
  <v>       0.02380466       0.34526923       0.03081220 </v>
 </varray>
 <varray name="stress" >
  <v>       0.05644565       0.00476310       0.05558052 </v>
  <v>       0.00476310      -0.31788733       0.00889448 </v>
  <v>       0.05558052       0.00889448       0.07956402 </v>
 </varray>
 <energy>
  <i name="e_fr_energy">   -449.22067095 </i>
  <i name="e_wo_entrp">   -449.22067095 </i>
  <i name="e_0_energy">   -449.22067095 </i>
 </energy>
