 vasp.5.3.5 31Mar14 (build Apr 25 2014 16:28:52) complex                        
  
 executed on             LinuxIFC date 2019.02.08  10:55:06
 running on   12 total cores
 distrk:  each k-point on   12 cores,    1 groups
 distr:  one band on NCORES_PER_BAND=   6 cores,    2 groups


--------------------------------------------------------------------------------------------------------


 INCAR:
 POTCAR:    PAW_PBE Pd 04Jan2005                  
 POTCAR:    PAW_PBE Pd 04Jan2005                  
  local pseudopotential read in
  partial core-charges read in
  partial kinetic energy density read in
  atomic valenz-charges read in
  non local Contribution for L=           2  read in
    real space projection operators read in
  non local Contribution for L=           2  read in
    real space projection operators read in
  non local Contribution for L=           0  read in
    real space projection operators read in
  non local Contribution for L=           0  read in
    real space projection operators read in
  non local Contribution for L=           1  read in
    real space projection operators read in
  non local Contribution for L=           1  read in
    real space projection operators read in
    PAW grid and wavefunctions read in
 
   number of l-projection  operators is LMAX  =           6
   number of lm-projection operators is LMMAX =          18
 

 ----------------------------------------------------------------------------- 
|                                                                             |
|  ADVICE TO THIS USER RUNNING 'VASP/VAMP'   (HEAR YOUR MASTER'S VOICE ...):  |
|                                                                             |
|      You have a (more or less) 'small supercell' and for smaller cells      |
|      it is recommended  to use the reciprocal-space projection scheme!      |
|      The real space optimization is not  efficient for small cells and it   |
|      is also less accurate ...                                              |
|      Therefore set LREAL=.FALSE. in the  INCAR file                         |
|                                                                             |
 ----------------------------------------------------------------------------- 

 Optimization of the real space projectors (new method)

 maximal supplied QI-value         = 14.36
 optimisation between [QCUT,QGAM] = [ 13.50, 27.00] = [ 51.04,204.15] Ry 
 Optimized for a Real-space Cutoff    1.40 Angstroem

   l    n(q)    QCUT    max X(q) W(low)/X(q) W(high)/X(q)  e(spline) 
   2     10    13.500    59.108    0.13E-03    0.12E-04    0.45E-06
   2     10    13.500    58.101    0.13E-03    0.13E-04    0.45E-06
   0     11    13.500   102.235    0.37E-04    0.94E-05    0.58E-06
   0     11    13.500    58.388    0.34E-04    0.88E-05    0.55E-06
   1     11    13.500    22.191    0.41E-03    0.10E-02    0.35E-05
   1     11    13.500    15.590    0.34E-03    0.84E-03    0.29E-05
  PAW_PBE Pd 04Jan2005                  :
 energy of atom  1       EATOM= -809.7530
 kinetic energy error for atom=    0.0010 (will be added to EATOM!!)
 
 
 POSCAR: Pd                                      
  positions in direct lattice
  velocities in cartesian coordinates
 exchange correlation table for  LEXCH =        8
   RHO(1)=    0.500       N(1)  =     2000
   RHO(2)=  100.500       N(2)  =     4000
 


--------------------------------------------------------------------------------------------------------


 ion  position               nearest neighbor table
   1  0.000  0.000  0.000-   3 2.78   4 2.78   3 2.78   4 2.78   3 2.78   4 2.78   3 2.78   4 2.78
                             2 2.78   2 2.78   2 2.78   2 2.78
   2  0.000  0.500  0.500-   3 2.78   4 2.78   4 2.78   3 2.78   3 2.78   4 2.78   4 2.78   3 2.78
                             1 2.78   1 2.78   1 2.78   1 2.78
   3  0.500  0.000  0.500-   1 2.78   2 2.78   1 2.78   2 2.78   1 2.78   2 2.78   1 2.78   2 2.78
                             4 2.78   4 2.78   4 2.78   4 2.78
   4  0.500  0.500  0.000-   1 2.78   2 2.78   2 2.78   1 2.78   1 2.78   2 2.78   2 2.78   1 2.78
                             3 2.78   3 2.78   3 2.78   3 2.78
 
  LATTYP: Found a simple cubic cell.
 ALAT       =     3.9271740364
  
  Lattice vectors:
  
 A1 = (   3.9271740364,   0.0000000000,   0.0000000000)
 A2 = (   0.0000000000,   3.9271740364,   0.0000000000)
 A3 = (   0.0000000000,   0.0000000000,   3.9271740364)


Analysis of symmetry for initial positions (statically):
=====================================================================
 Subroutine PRICEL returns following result:
 
  LATTYP: Found a face centered cubic cell.
 ALAT       =     3.9271740364
  
  Lattice vectors:
  
 A1 = (   1.9635870182,   1.9635870182,   0.0000000000)
 A2 = (   1.9635870182,   0.0000000000,  -1.9635870182)
 A3 = (   0.0000000000,   1.9635870182,  -1.9635870182)
 
   4 primitive cells build up your supercell.
 

 Routine SETGRP: Setting up the symmetry group for a 
 simple cubic supercell.


 Subroutine GETGRP returns: Found 48 space group operations
 (whereof 48 operations were pure point group operations)
 out of a pool of 48 trial point group operations.


The static configuration has the point symmetry O_h .


Analysis of symmetry for dynamics (positions and initial velocities):
=====================================================================
 Subroutine PRICEL returns following result:
 
  LATTYP: Found a face centered cubic cell.
 ALAT       =     3.9271740364
  
  Lattice vectors:
  
 A1 = (   1.9635870182,   1.9635870182,   0.0000000000)
 A2 = (   1.9635870182,   0.0000000000,  -1.9635870182)
 A3 = (   0.0000000000,   1.9635870182,  -1.9635870182)
 
   4 primitive cells build up your supercell.
 

 Routine SETGRP: Setting up the symmetry group for a 
 simple cubic supercell.


 Subroutine GETGRP returns: Found 48 space group operations
 (whereof 48 operations were pure point group operations)
 out of a pool of 48 trial point group operations.


The dynamic configuration has the point symmetry O_h .
 
 
 KPOINTS: K-points                                

Automatic generation of k-mesh.
Space group operators:
 irot       det(A)        alpha          n_x          n_y          n_z        tau_x        tau_y        tau_z
    1     1.000000     0.000000     1.000000     0.000000     0.000000     0.000000     0.000000     0.000000
    2    -1.000000     0.000000     1.000000     0.000000     0.000000     0.000000     0.000000     0.000000
    3     1.000000   120.000000    -0.577350    -0.577350    -0.577350     0.000000     0.000000     0.000000
    4    -1.000000   120.000000    -0.577350    -0.577350    -0.577350     0.000000     0.000000     0.000000
    5     1.000000   120.000000     0.577350     0.577350     0.577350     0.000000     0.000000     0.000000
    6    -1.000000   120.000000     0.577350     0.577350     0.577350     0.000000     0.000000     0.000000
    7     1.000000    90.000000     0.000000     0.000000    -1.000000     0.000000     0.000000     0.000000
    8    -1.000000    90.000000     0.000000     0.000000    -1.000000     0.000000     0.000000     0.000000
    9     1.000000   180.000000     0.000000     0.707107     0.707107     0.000000     0.000000     0.000000
   10    -1.000000   180.000000     0.000000     0.707107     0.707107     0.000000     0.000000     0.000000
   11     1.000000    90.000000     0.000000     1.000000     0.000000     0.000000     0.000000     0.000000
   12    -1.000000    90.000000     0.000000     1.000000     0.000000     0.000000     0.000000     0.000000
   13     1.000000   180.000000     0.000000     0.000000     1.000000     0.000000     0.000000     0.000000
   14    -1.000000   180.000000     0.000000     0.000000     1.000000     0.000000     0.000000     0.000000
   15     1.000000   120.000000    -0.577350     0.577350     0.577350     0.000000     0.000000     0.000000
   16    -1.000000   120.000000    -0.577350     0.577350     0.577350     0.000000     0.000000     0.000000
   17     1.000000   120.000000    -0.577350     0.577350    -0.577350     0.000000     0.000000     0.000000
   18    -1.000000   120.000000    -0.577350     0.577350    -0.577350     0.000000     0.000000     0.000000
   19     1.000000    90.000000     0.000000     0.000000     1.000000     0.000000     0.000000     0.000000
   20    -1.000000    90.000000     0.000000     0.000000     1.000000     0.000000     0.000000     0.000000
   21     1.000000    90.000000    -1.000000     0.000000     0.000000     0.000000     0.000000     0.000000
   22    -1.000000    90.000000    -1.000000     0.000000     0.000000     0.000000     0.000000     0.000000
   23     1.000000   180.000000     0.707107     0.000000     0.707107     0.000000     0.000000     0.000000
   24    -1.000000   180.000000     0.707107     0.000000     0.707107     0.000000     0.000000     0.000000
   25     1.000000   120.000000     0.577350    -0.577350     0.577350     0.000000     0.000000     0.000000
   26    -1.000000   120.000000     0.577350    -0.577350     0.577350     0.000000     0.000000     0.000000
   27     1.000000   120.000000    -0.577350    -0.577350     0.577350     0.000000     0.000000     0.000000
   28    -1.000000   120.000000    -0.577350    -0.577350     0.577350     0.000000     0.000000     0.000000
   29     1.000000   180.000000     1.000000     0.000000     0.000000     0.000000     0.000000     0.000000
   30    -1.000000   180.000000     1.000000     0.000000     0.000000     0.000000     0.000000     0.000000
   31     1.000000    90.000000     0.000000    -1.000000     0.000000     0.000000     0.000000     0.000000
   32    -1.000000    90.000000     0.000000    -1.000000     0.000000     0.000000     0.000000     0.000000
   33     1.000000   180.000000     0.707107     0.707107     0.000000     0.000000     0.000000     0.000000
   34    -1.000000   180.000000     0.707107     0.707107     0.000000     0.000000     0.000000     0.000000
   35     1.000000    90.000000     1.000000     0.000000     0.000000     0.000000     0.000000     0.000000
   36    -1.000000    90.000000     1.000000     0.000000     0.000000     0.000000     0.000000     0.000000
   37     1.000000   120.000000     0.577350    -0.577350    -0.577350     0.000000     0.000000     0.000000
   38    -1.000000   120.000000     0.577350    -0.577350    -0.577350     0.000000     0.000000     0.000000
   39     1.000000   180.000000     0.000000     1.000000     0.000000     0.000000     0.000000     0.000000
   40    -1.000000   180.000000     0.000000     1.000000     0.000000     0.000000     0.000000     0.000000
   41     1.000000   120.000000     0.577350     0.577350    -0.577350     0.000000     0.000000     0.000000
   42    -1.000000   120.000000     0.577350     0.577350    -0.577350     0.000000     0.000000     0.000000
   43     1.000000   180.000000     0.000000    -0.707107     0.707107     0.000000     0.000000     0.000000
   44    -1.000000   180.000000     0.000000    -0.707107     0.707107     0.000000     0.000000     0.000000
   45     1.000000   180.000000     0.707107    -0.707107     0.000000     0.000000     0.000000     0.000000
   46    -1.000000   180.000000     0.707107    -0.707107     0.000000     0.000000     0.000000     0.000000
   47     1.000000   180.000000     0.707107     0.000000    -0.707107     0.000000     0.000000     0.000000
   48    -1.000000   180.000000     0.707107     0.000000    -0.707107     0.000000     0.000000     0.000000
 
 Subroutine IBZKPT returns following result:
 ===========================================
 
 Found     56 irreducible k-points:
 
 Following reciprocal coordinates:
            Coordinates               Weight
  0.000000  0.000000  0.000000      1.000000
  0.090909  0.000000  0.000000      6.000000
  0.181818  0.000000  0.000000      6.000000
  0.272727  0.000000  0.000000      6.000000
  0.363636  0.000000  0.000000      6.000000
  0.454545  0.000000  0.000000      6.000000
  0.090909  0.090909  0.000000     12.000000
  0.181818  0.090909  0.000000     24.000000
  0.272727  0.090909  0.000000     24.000000
  0.363636  0.090909  0.000000     24.000000
  0.454545  0.090909  0.000000     24.000000
  0.181818  0.181818  0.000000     12.000000
  0.272727  0.181818  0.000000     24.000000
  0.363636  0.181818  0.000000     24.000000
  0.454545  0.181818  0.000000     24.000000
  0.272727  0.272727  0.000000     12.000000
  0.363636  0.272727  0.000000     24.000000
  0.454545  0.272727  0.000000     24.000000
  0.363636  0.363636  0.000000     12.000000
  0.454545  0.363636  0.000000     24.000000
  0.454545  0.454545  0.000000     12.000000
  0.090909  0.090909  0.090909      8.000000
  0.181818  0.090909  0.090909     24.000000
  0.272727  0.090909  0.090909     24.000000
  0.363636  0.090909  0.090909     24.000000
  0.454545  0.090909  0.090909     24.000000
  0.181818  0.181818  0.090909     24.000000
  0.272727  0.181818  0.090909     48.000000
  0.363636  0.181818  0.090909     48.000000
  0.454545  0.181818  0.090909     48.000000
  0.272727  0.272727  0.090909     24.000000
  0.363636  0.272727  0.090909     48.000000
  0.454545  0.272727  0.090909     48.000000
  0.363636  0.363636  0.090909     24.000000
  0.454545  0.363636  0.090909     48.000000
  0.454545  0.454545  0.090909     24.000000
  0.181818  0.181818  0.181818      8.000000
  0.272727  0.181818  0.181818     24.000000
  0.363636  0.181818  0.181818     24.000000
  0.454545  0.181818  0.181818     24.000000
  0.272727  0.272727  0.181818     24.000000
  0.363636  0.272727  0.181818     48.000000
  0.454545  0.272727  0.181818     48.000000
  0.363636  0.363636  0.181818     24.000000
  0.454545  0.363636  0.181818     48.000000
  0.454545  0.454545  0.181818     24.000000
  0.272727  0.272727  0.272727      8.000000
  0.363636  0.272727  0.272727     24.000000
  0.454545  0.272727  0.272727     24.000000
  0.363636  0.363636  0.272727     24.000000
  0.454545  0.363636  0.272727     48.000000
  0.454545  0.454545  0.272727     24.000000
  0.363636  0.363636  0.363636      8.000000
  0.454545  0.363636  0.363636     24.000000
  0.454545  0.454545  0.363636     24.000000
  0.454545  0.454545  0.454545      8.000000
 
 Following cartesian coordinates:
            Coordinates               Weight
  0.000000  0.000000  0.000000      1.000000
  0.023149  0.000000  0.000000      6.000000
  0.046297  0.000000  0.000000      6.000000
  0.069446  0.000000  0.000000      6.000000
  0.092595  0.000000  0.000000      6.000000
  0.115744  0.000000  0.000000      6.000000
  0.023149  0.023149  0.000000     12.000000
  0.046297  0.023149  0.000000     24.000000
  0.069446  0.023149  0.000000     24.000000
  0.092595  0.023149  0.000000     24.000000
  0.115744  0.023149  0.000000     24.000000
  0.046297  0.046297  0.000000     12.000000
  0.069446  0.046297  0.000000     24.000000
  0.092595  0.046297  0.000000     24.000000
  0.115744  0.046297  0.000000     24.000000
  0.069446  0.069446  0.000000     12.000000
  0.092595  0.069446  0.000000     24.000000
  0.115744  0.069446  0.000000     24.000000
  0.092595  0.092595  0.000000     12.000000
  0.115744  0.092595  0.000000     24.000000
  0.115744  0.115744  0.000000     12.000000
  0.023149  0.023149  0.023149      8.000000
  0.046297  0.023149  0.023149     24.000000
  0.069446  0.023149  0.023149     24.000000
  0.092595  0.023149  0.023149     24.000000
  0.115744  0.023149  0.023149     24.000000
  0.046297  0.046297  0.023149     24.000000
  0.069446  0.046297  0.023149     48.000000
  0.092595  0.046297  0.023149     48.000000
  0.115744  0.046297  0.023149     48.000000
  0.069446  0.069446  0.023149     24.000000
  0.092595  0.069446  0.023149     48.000000
  0.115744  0.069446  0.023149     48.000000
  0.092595  0.092595  0.023149     24.000000
  0.115744  0.092595  0.023149     48.000000
  0.115744  0.115744  0.023149     24.000000
  0.046297  0.046297  0.046297      8.000000
  0.069446  0.046297  0.046297     24.000000
  0.092595  0.046297  0.046297     24.000000
  0.115744  0.046297  0.046297     24.000000
  0.069446  0.069446  0.046297     24.000000
  0.092595  0.069446  0.046297     48.000000
  0.115744  0.069446  0.046297     48.000000
  0.092595  0.092595  0.046297     24.000000
  0.115744  0.092595  0.046297     48.000000
  0.115744  0.115744  0.046297     24.000000
  0.069446  0.069446  0.069446      8.000000
  0.092595  0.069446  0.069446     24.000000
  0.115744  0.069446  0.069446     24.000000
  0.092595  0.092595  0.069446     24.000000
  0.115744  0.092595  0.069446     48.000000
  0.115744  0.115744  0.069446     24.000000
  0.092595  0.092595  0.092595      8.000000
  0.115744  0.092595  0.092595     24.000000
  0.115744  0.115744  0.092595     24.000000
  0.115744  0.115744  0.115744      8.000000
 


--------------------------------------------------------------------------------------------------------




 Dimension of arrays:
   k-points           NKPTS =     56   k-points in BZ     NKDIM =     56   number of bands    NBANDS=     24
   number of dos      NEDOS =   3000   number of ions     NIONS =      4
   non local maximal  LDIM  =      6   non local SUM 2l+1 LMDIM =     18
   total plane-waves  NPLWV =  21952
   max r-space proj   IRMAX =   4238   max aug-charges    IRDMAX=  17779
   dimension x,y,z NGX =    28 NGY =   28 NGZ =   28
   dimension x,y,z NGXF=    56 NGYF=   56 NGZF=   56
   support grid    NGXF=    56 NGYF=   56 NGZF=   56
   ions per type =               4
 NGX,Y,Z   is equivalent  to a cutoff of  11.85, 11.85, 11.85 a.u.
 NGXF,Y,Z  is equivalent  to a cutoff of  23.71, 23.71, 23.71 a.u.


 I would recommend the setting:
   dimension x,y,z NGX =    25 NGY =   25 NGZ =   25
 SYSTEM =  Bulk                                    
 POSCAR =  Pd                                      

 Startparameter for this run:
   NWRITE =      0    write-flag & timer
   PREC   = normal    normal or accurate (medium, high low for compatibility)
   ISTART =      0    job   : 0-new  1-cont  2-samecut
   ICHARG =      2    charge: 1-file 2-atom 10-const
   ISPIN  =      1    spin polarized calculation?
   LNONCOLLINEAR =      F non collinear calculations
   LSORBIT =      F    spin-orbit coupling
   INIWAV =      1    electr: 0-lowe 1-rand  2-diag
   LASPH  =      F    aspherical Exc in radial PAW
   METAGGA=      F    non-selfconsistent MetaGGA calc.

 Electronic Relaxation 1
   ENCUT  =  700.0 eV  51.45 Ry    7.17 a.u.   8.47  8.47  8.47*2*pi/ulx,y,z
   ENINI  =  700.0     initial cutoff
   ENAUG  =  416.2 eV  augmentation charge cutoff
   NELM   =     80;   NELMIN=  2; NELMDL=  0     # of ELM steps 
   EDIFF  = 0.1E-04   stopping-criterion for ELM
   LREAL  =      T    real-space projection
   NLSPLINE    = F    spline interpolate recip. space projectors
   LCOMPAT=      F    compatible to vasp.4.4
   GGA_COMPAT  = T    GGA compatible to vasp.4.4-vasp.4.6
   LMAXPAW     = -100 max onsite density
   LMAXMIX     =    2 max onsite mixed and CHGCAR
   VOSKOWN=      0    Vosko Wilk Nusair interpolation
   ROPT   =   -0.00050
 Ionic relaxation
   EDIFFG = -.1E-01   stopping-criterion for IOM
   NSW    =      1    number of steps for IOM
   NBLOCK =      1;   KBLOCK =      1    inner block; outer block 
   IBRION =      2    ionic relax: 0-MD 1-quasi-New 2-CG
   NFREE  =      1    steps in history (QN), initial steepest desc. (CG)
   ISIF   =      3    stress and relaxation
   IWAVPR =     11    prediction:  0-non 1-charg 2-wave 3-comb
   ISYM   =      2    0-nonsym 1-usesym 2-fastsym
   LCORR  =      T    Harris-Foulkes like correction to forces

   POTIM  = 0.1000    time-step for ionic-motion
   TEIN   =    0.0    initial temperature
   TEBEG  =    0.0;   TEEND  =   0.0 temperature during run
   SMASS  =  -3.00    Nose mass-parameter (am)
   estimated Nose-frequenzy (Omega)   =  0.10E-29 period in steps =****** mass=  -0.352E-27a.u.
   SCALEE = 1.0000    scale energy and forces
   NPACO  =    256;   APACO  = 16.0  distance and # of slots for P.C.
   PSTRESS=    0.0 pullay stress

  Mass of Ions in am
   POMASS = 106.42
  Ionic Valenz
   ZVAL   =  10.00
  Atomic Wigner-Seitz radii
   RWIGS  =  -1.00
  virtual crystal weights 
   VCA    =   1.00
   NELECT =      40.0000    total number of electrons
   NUPDOWN=      -1.0000    fix difference up-down

 DOS related values:
   EMIN   =  10.00;   EMAX   =-10.00  energy-range for DOS
   EFERMI =   0.00
   ISMEAR =     1;   SIGMA  =   0.10  broadening in eV -4-tet -1-fermi 0-gaus

 Electronic relaxation 2 (details)
   IALGO  =     68    algorithm
   LDIAG  =      T    sub-space diagonalisation (order eigenvalues)
   LSUBROT=      F    optimize rotation matrix (better conditioning)
   TURBO    =      0    0=normal 1=particle mesh
   IRESTART =      0    0=no restart 2=restart with 2 vectors
   NREBOOT  =      0    no. of reboots
   NMIN     =      0    reboot dimension
   EREF     =   0.00    reference energy to select bands
   IMIX   =      4    mixing-type and parameters
     AMIX     =   0.40;   BMIX     =  1.00
     AMIX_MAG =   1.60;   BMIX_MAG =  1.00
     AMIN     =   0.10
     WC   =   100.;   INIMIX=   1;  MIXPRE=   1;  MAXMIX= -45

 Intra band minimization:
   WEIMIN = 0.0010     energy-eigenvalue tresh-hold
   EBREAK =  0.10E-06  absolut break condition
   DEPER  =   0.30     relativ break condition  

   TIME   =   0.40     timestep for ELM

  volume/ion in A,a.u.               =      15.14       102.18
  Fermi-wavevector in a.u.,A,eV,Ry     =   1.425656  2.694099 27.653765  2.032494
  Thomas-Fermi vector in A             =   2.546017
 
 Write flags
   LWAVE  =      T    write WAVECAR
   LCHARG =      T    write CHGCAR
   LVTOT  =      F    write LOCPOT, total local potential
   LVHAR  =      F    write LOCPOT, Hartree potential only
   LELF   =      F    write electronic localiz. function (ELF)
   LORBIT =     11    0 simple, 1 ext, 2 COOP (PROOUT)


 Dipole corrections
   LMONO  =      F    monopole corrections only (constant potential shift)
   LDIPOL =      F    correct potential (dipole corrections)
   IDIPOL =      0    1-x, 2-y, 3-z, 4-all directions 
   EPSILON=  1.0000000 bulk dielectric constant

 Exchange correlation treatment:
   GGA     =    PE    GGA type
   LEXCH   =     8    internal setting for exchange type
   VOSKOWN=      0    Vosko Wilk Nusair interpolation
   LHFCALC =     F    Hartree Fock is set to
   LHFONE  =     F    Hartree Fock one center treatment
   AEXX    =    0.0000 exact exchange contribution

 Linear response parameters
   LEPSILON=     F    determine dielectric tensor
   LRPA    =     F    only Hartree local field effects (RPA)
   LNABLA  =     F    use nabla operator in PAW spheres
   LVEL    =     F    velocity operator in full k-point grid
   LINTERFAST=   F  fast interpolation
   KINTER  =     0    interpolate to denser k-point grid
   CSHIFT  =0.1000    complex shift for real part using Kramers Kronig
   OMEGAMAX=  -1.0    maximum frequency
   DEG_THRESHOLD= 0.2000000E-02 threshold for treating states as degnerate
   RTIME   =    0.100 relaxation time in fs

 Orbital magnetization related:
   ORBITALMAG=     F  switch on orbital magnetization
   LCHIMAG   =     F  perturbation theory with respect to B field
   DQ        =  0.001000  dq finite difference perturbation B field



--------------------------------------------------------------------------------------------------------


 conjugate gradient relaxation of ions
 charge density and potential will be updated during run
 non-spin polarized calculation
 RMM-DIIS sequential band-by-band and
  variant of blocked Davidson during initial phase
 perform sub-space diagonalisation
    before iterative eigenvector-optimisation
 modified Broyden-mixing scheme, WC =      100.0
 initial mixing is a Kerker type mixing with AMIX =  0.4000 and BMIX =      1.0000
 Hartree-type preconditioning will be used
 using additional bands            4
 real space projection scheme for non local part
 use partial core corrections
 calculate Harris-corrections to forces 
   (improved forces if not selfconsistent)
 use gradient corrections 
 use of overlap-Matrix (Vanderbilt PP)
 Methfessel and Paxton  Order N= 1 SIGMA  =   0.10


--------------------------------------------------------------------------------------------------------


  energy-cutoff  :      700.00
  volume of cell :       60.57
      direct lattice vectors                 reciprocal lattice vectors
     3.927174036  0.000000000  0.000000000     0.254636029  0.000000000  0.000000000
     0.000000000  3.927174036  0.000000000     0.000000000  0.254636029  0.000000000
     0.000000000  0.000000000  3.927174036     0.000000000  0.000000000  0.254636029

  length of vectors
     3.927174036  3.927174036  3.927174036     0.254636029  0.254636029  0.254636029


 
 k-points in units of 2pi/SCALE and weight: K-points                                
   0.00000000  0.00000000  0.00000000       0.001
   0.02314873  0.00000000  0.00000000       0.005
   0.04629746  0.00000000  0.00000000       0.005
   0.06944619  0.00000000  0.00000000       0.005
   0.09259492  0.00000000  0.00000000       0.005
   0.11574365  0.00000000  0.00000000       0.005
   0.02314873  0.02314873  0.00000000       0.009
   0.04629746  0.02314873  0.00000000       0.018
   0.06944619  0.02314873  0.00000000       0.018
   0.09259492  0.02314873  0.00000000       0.018
   0.11574365  0.02314873  0.00000000       0.018
   0.04629746  0.04629746  0.00000000       0.009
   0.06944619  0.04629746  0.00000000       0.018
   0.09259492  0.04629746  0.00000000       0.018
   0.11574365  0.04629746  0.00000000       0.018
   0.06944619  0.06944619  0.00000000       0.009
   0.09259492  0.06944619  0.00000000       0.018
   0.11574365  0.06944619  0.00000000       0.018
   0.09259492  0.09259492  0.00000000       0.009
   0.11574365  0.09259492  0.00000000       0.018
   0.11574365  0.11574365  0.00000000       0.009
   0.02314873  0.02314873  0.02314873       0.006
   0.04629746  0.02314873  0.02314873       0.018
   0.06944619  0.02314873  0.02314873       0.018
   0.09259492  0.02314873  0.02314873       0.018
   0.11574365  0.02314873  0.02314873       0.018
   0.04629746  0.04629746  0.02314873       0.018
   0.06944619  0.04629746  0.02314873       0.036
   0.09259492  0.04629746  0.02314873       0.036
   0.11574365  0.04629746  0.02314873       0.036
   0.06944619  0.06944619  0.02314873       0.018
   0.09259492  0.06944619  0.02314873       0.036
   0.11574365  0.06944619  0.02314873       0.036
   0.09259492  0.09259492  0.02314873       0.018
   0.11574365  0.09259492  0.02314873       0.036
   0.11574365  0.11574365  0.02314873       0.018
   0.04629746  0.04629746  0.04629746       0.006
   0.06944619  0.04629746  0.04629746       0.018
   0.09259492  0.04629746  0.04629746       0.018
   0.11574365  0.04629746  0.04629746       0.018
   0.06944619  0.06944619  0.04629746       0.018
   0.09259492  0.06944619  0.04629746       0.036
   0.11574365  0.06944619  0.04629746       0.036
   0.09259492  0.09259492  0.04629746       0.018
   0.11574365  0.09259492  0.04629746       0.036
   0.11574365  0.11574365  0.04629746       0.018
   0.06944619  0.06944619  0.06944619       0.006
   0.09259492  0.06944619  0.06944619       0.018
   0.11574365  0.06944619  0.06944619       0.018
   0.09259492  0.09259492  0.06944619       0.018
   0.11574365  0.09259492  0.06944619       0.036
   0.11574365  0.11574365  0.06944619       0.018
   0.09259492  0.09259492  0.09259492       0.006
   0.11574365  0.09259492  0.09259492       0.018
   0.11574365  0.11574365  0.09259492       0.018
   0.11574365  0.11574365  0.11574365       0.006
 
 k-points in reciprocal lattice and weights: K-points                                
   0.00000000  0.00000000  0.00000000       0.001
   0.09090909  0.00000000  0.00000000       0.005
   0.18181818  0.00000000  0.00000000       0.005
   0.27272727  0.00000000  0.00000000       0.005
   0.36363636  0.00000000  0.00000000       0.005
   0.45454545  0.00000000  0.00000000       0.005
   0.09090909  0.09090909  0.00000000       0.009
   0.18181818  0.09090909  0.00000000       0.018
   0.27272727  0.09090909  0.00000000       0.018
   0.36363636  0.09090909  0.00000000       0.018
   0.45454545  0.09090909  0.00000000       0.018
   0.18181818  0.18181818  0.00000000       0.009
   0.27272727  0.18181818  0.00000000       0.018
   0.36363636  0.18181818  0.00000000       0.018
   0.45454545  0.18181818  0.00000000       0.018
   0.27272727  0.27272727  0.00000000       0.009
   0.36363636  0.27272727  0.00000000       0.018
   0.45454545  0.27272727  0.00000000       0.018
   0.36363636  0.36363636  0.00000000       0.009
   0.45454545  0.36363636  0.00000000       0.018
   0.45454545  0.45454545  0.00000000       0.009
   0.09090909  0.09090909  0.09090909       0.006
   0.18181818  0.09090909  0.09090909       0.018
   0.27272727  0.09090909  0.09090909       0.018
   0.36363636  0.09090909  0.09090909       0.018
   0.45454545  0.09090909  0.09090909       0.018
   0.18181818  0.18181818  0.09090909       0.018
   0.27272727  0.18181818  0.09090909       0.036
   0.36363636  0.18181818  0.09090909       0.036
   0.45454545  0.18181818  0.09090909       0.036
   0.27272727  0.27272727  0.09090909       0.018
   0.36363636  0.27272727  0.09090909       0.036
   0.45454545  0.27272727  0.09090909       0.036
   0.36363636  0.36363636  0.09090909       0.018
   0.45454545  0.36363636  0.09090909       0.036
   0.45454545  0.45454545  0.09090909       0.018
   0.18181818  0.18181818  0.18181818       0.006
   0.27272727  0.18181818  0.18181818       0.018
   0.36363636  0.18181818  0.18181818       0.018
   0.45454545  0.18181818  0.18181818       0.018
   0.27272727  0.27272727  0.18181818       0.018
   0.36363636  0.27272727  0.18181818       0.036
   0.45454545  0.27272727  0.18181818       0.036
   0.36363636  0.36363636  0.18181818       0.018
   0.45454545  0.36363636  0.18181818       0.036
   0.45454545  0.45454545  0.18181818       0.018
   0.27272727  0.27272727  0.27272727       0.006
   0.36363636  0.27272727  0.27272727       0.018
   0.45454545  0.27272727  0.27272727       0.018
   0.36363636  0.36363636  0.27272727       0.018
   0.45454545  0.36363636  0.27272727       0.036
   0.45454545  0.45454545  0.27272727       0.018
   0.36363636  0.36363636  0.36363636       0.006
   0.45454545  0.36363636  0.36363636       0.018
   0.45454545  0.45454545  0.36363636       0.018
   0.45454545  0.45454545  0.45454545       0.006
 
 position of ions in fractional coordinates (direct lattice) 
   0.00000000  0.00000000  0.00000000
   0.00000000  0.50000000  0.50000000
   0.50000000  0.00000000  0.50000000
   0.50000000  0.50000000  0.00000000
 
 position of ions in cartesian coordinates  (Angst):
   0.00000000  0.00000000  0.00000000
   0.00000000  1.96358702  1.96358702
   1.96358702  0.00000000  1.96358702
   1.96358702  1.96358702  0.00000000
 


--------------------------------------------------------------------------------------------------------


 k-point  1 :   0.0000 0.0000 0.0000  plane waves:    2517
 k-point  2 :   0.0909 0.0000 0.0000  plane waves:    2537
 k-point  3 :   0.1818 0.0000 0.0000  plane waves:    2541
 k-point  4 :   0.2727 0.0000 0.0000  plane waves:    2545
 k-point  5 :   0.3636 0.0000 0.0000  plane waves:    2553
 k-point  6 :   0.4545 0.0000 0.0000  plane waves:    2557
 k-point  7 :   0.0909 0.0909 0.0000  plane waves:    2540
 k-point  8 :   0.1818 0.0909 0.0000  plane waves:    2554
 k-point  9 :   0.2727 0.0909 0.0000  plane waves:    2557
 k-point 10 :   0.3636 0.0909 0.0000  plane waves:    2547
 k-point 11 :   0.4545 0.0909 0.0000  plane waves:    2551
 k-point 12 :   0.1818 0.1818 0.0000  plane waves:    2560
 k-point 13 :   0.2727 0.1818 0.0000  plane waves:    2558
 k-point 14 :   0.3636 0.1818 0.0000  plane waves:    2558
 k-point 15 :   0.4545 0.1818 0.0000  plane waves:    2550
 k-point 16 :   0.2727 0.2727 0.0000  plane waves:    2556
 k-point 17 :   0.3636 0.2727 0.0000  plane waves:    2556
 k-point 18 :   0.4545 0.2727 0.0000  plane waves:    2560
 k-point 19 :   0.3636 0.3636 0.0000  plane waves:    2562
 k-point 20 :   0.4545 0.3636 0.0000  plane waves:    2553
 k-point 21 :   0.4545 0.4545 0.0000  plane waves:    2532
 k-point 22 :   0.0909 0.0909 0.0909  plane waves:    2544
 k-point 23 :   0.1818 0.0909 0.0909  plane waves:    2551
 k-point 24 :   0.2727 0.0909 0.0909  plane waves:    2545
 k-point 25 :   0.3636 0.0909 0.0909  plane waves:    2546
 k-point 26 :   0.4545 0.0909 0.0909  plane waves:    2544
 k-point 27 :   0.1818 0.1818 0.0909  plane waves:    2552
 k-point 28 :   0.2727 0.1818 0.0909  plane waves:    2557
 k-point 29 :   0.3636 0.1818 0.0909  plane waves:    2561
 k-point 30 :   0.4545 0.1818 0.0909  plane waves:    2551
 k-point 31 :   0.2727 0.2727 0.0909  plane waves:    2562
 k-point 32 :   0.3636 0.2727 0.0909  plane waves:    2551
 k-point 33 :   0.4545 0.2727 0.0909  plane waves:    2552
 k-point 34 :   0.3636 0.3636 0.0909  plane waves:    2547
 k-point 35 :   0.4545 0.3636 0.0909  plane waves:    2553
 k-point 36 :   0.4545 0.4545 0.0909  plane waves:    2539
 k-point 37 :   0.1818 0.1818 0.1818  plane waves:    2560
 k-point 38 :   0.2727 0.1818 0.1818  plane waves:    2545
 k-point 39 :   0.3636 0.1818 0.1818  plane waves:    2552
 k-point 40 :   0.4545 0.1818 0.1818  plane waves:    2541
 k-point 41 :   0.2727 0.2727 0.1818  plane waves:    2547
 k-point 42 :   0.3636 0.2727 0.1818  plane waves:    2542
 k-point 43 :   0.4545 0.2727 0.1818  plane waves:    2540
 k-point 44 :   0.3636 0.3636 0.1818  plane waves:    2541
 k-point 45 :   0.4545 0.3636 0.1818  plane waves:    2544
 k-point 46 :   0.4545 0.4545 0.1818  plane waves:    2542
 k-point 47 :   0.2727 0.2727 0.2727  plane waves:    2542
 k-point 48 :   0.3636 0.2727 0.2727  plane waves:    2535
 k-point 49 :   0.4545 0.2727 0.2727  plane waves:    2545
 k-point 50 :   0.3636 0.3636 0.2727  plane waves:    2536
 k-point 51 :   0.4545 0.3636 0.2727  plane waves:    2528
 k-point 52 :   0.4545 0.4545 0.2727  plane waves:    2526
 k-point 53 :   0.3636 0.3636 0.3636  plane waves:    2518
 k-point 54 :   0.4545 0.3636 0.3636  plane waves:    2531
 k-point 55 :   0.4545 0.4545 0.3636  plane waves:    2514
 k-point 56 :   0.4545 0.4545 0.4545  plane waves:    2518

 maximum and minimum number of plane-waves per node :       442      396

 maximum number of plane-waves:      2562
 maximum index in each direction: 
   IXMAX=    8   IYMAX=    8   IZMAX=    8
   IXMIN=   -8   IYMIN=   -8   IZMIN=   -8

 WARNING: aliasing errors must be expected set NGX to  34 to avoid them
 WARNING: aliasing errors must be expected set NGY to  34 to avoid them
 WARNING: aliasing errors must be expected set NGZ to  34 to avoid them
 aliasing errors are usually negligible using standard VASP settings
 and one can safely disregard these warnings

 real space projection operators:
  total allocation   :       2226.94 KBytes
  max/ min on nodes  :        414.84        307.41


 parallel 3D FFT for wavefunctions:
    minimum data exchange during FFTs selected (reduces bandwidth)
 parallel 3D FFT for charge:
    minimum data exchange during FFTs selected (reduces bandwidth)


 total amount of memory used by VASP on root node    37263. kBytes
========================================================================

   base      :      30000. kBytes
   nonlr-proj:        759. kBytes
   fftplans  :        658. kBytes
   grid      :        929. kBytes
   one-center:         15. kBytes
   wavefun   :       4902. kBytes
 
     INWAV:  cpu time    0.00: real time    0.00
 Broyden mixing: mesh for mixing (old mesh)
   NGX = 17   NGY = 17   NGZ = 17
  (NGX  = 56   NGY  = 56   NGZ  = 56)
  gives a total of   4913 points

 initial charge density was supplied:
 charge density of overlapping atoms calculated
 number of electron      40.0000000 magnetization 
 keeping initial charge density in first step


--------------------------------------------------------------------------------------------------------


 Maximum index for non-local projection operator          747
 Maximum index for augmentation-charges         1735 (set IRDMAX)


--------------------------------------------------------------------------------------------------------


 First call to EWALD:  gamma=   0.451
 Maximum number of real-space cells 3x 3x 3
 Maximum number of reciprocal cells 3x 3x 3

 FEWALD executed in parallel
    FEWALD:  cpu time    0.00: real time    0.00


----------------------------------------- Iteration    1(   1)  ---------------------------------------


    POTLOK:  cpu time    0.02: real time    0.02
    SETDIJ:  cpu time    0.01: real time    0.01
     EDDAV:  cpu time    2.06: real time    2.09
       DOS:  cpu time    0.01: real time    0.01
    --------------------------------------------
      LOOP:  cpu time    2.10: real time    2.13

 eigenvalue-minimisations  :  2688
 total energy-change (2. order) : 0.3080586E+03  (-0.2469379E+04)
 number of electron      40.0000000 magnetization 
 augmentation part       40.0000000 magnetization 

 Free energy of the ion-electron system (eV)
  ---------------------------------------------------
  alpha Z        PSCENC =       172.17182311
  Ewald energy   TEWEN  =     -3362.26702177
  -Hartree energ DENC   =      -503.50988759
  -exchange      EXHF   =         0.00000000
  -V(xc)+E(xc)   XCENC  =      -116.81263613
  PAW double counting   =      3226.95325816    -2978.06409795
  entropy T*S    EENTRO =        -0.00022887
  eigenvalues    EBANDS =       630.57930344
  atomic energy  EATOM  =      3239.00805526
  ---------------------------------------------------
  free energy    TOTEN  =       308.05856765 eV

  energy without entropy =      308.05879653  energy(sigma->0) =      308.05864395


--------------------------------------------------------------------------------------------------------




----------------------------------------- Iteration    1(   2)  ---------------------------------------


     EDDAV:  cpu time    2.37: real time    2.39
       DOS:  cpu time    0.02: real time    0.02
    --------------------------------------------
      LOOP:  cpu time    2.39: real time    2.41

 eigenvalue-minimisations  :  3176
 total energy-change (2. order) :-0.3229604E+03  (-0.3146080E+03)
 number of electron      40.0000000 magnetization 
 augmentation part       40.0000000 magnetization 

 Free energy of the ion-electron system (eV)
  ---------------------------------------------------
  alpha Z        PSCENC =       172.17182311
  Ewald energy   TEWEN  =     -3362.26702177
  -Hartree energ DENC   =      -503.50988759
  -exchange      EXHF   =         0.00000000
  -V(xc)+E(xc)   XCENC  =      -116.81263613
  PAW double counting   =      3226.95325816    -2978.06409795
  entropy T*S    EENTRO =         0.00264041
  eigenvalues    EBANDS =       307.61602248
  atomic energy  EATOM  =      3239.00805526
  ---------------------------------------------------
  free energy    TOTEN  =       -14.90184402 eV

  energy without entropy =      -14.90448443  energy(sigma->0) =      -14.90272416


--------------------------------------------------------------------------------------------------------




----------------------------------------- Iteration    1(   3)  ---------------------------------------


     EDDAV:  cpu time    2.21: real time    2.23
       DOS:  cpu time    0.02: real time    0.02
    --------------------------------------------
      LOOP:  cpu time    2.23: real time    2.25

 eigenvalue-minimisations  :  2920
 total energy-change (2. order) :-0.6992976E+01  (-0.6847695E+01)
 number of electron      40.0000000 magnetization 
 augmentation part       40.0000000 magnetization 

 Free energy of the ion-electron system (eV)
  ---------------------------------------------------
  alpha Z        PSCENC =       172.17182311
  Ewald energy   TEWEN  =     -3362.26702177
  -Hartree energ DENC   =      -503.50988759
  -exchange      EXHF   =         0.00000000
  -V(xc)+E(xc)   XCENC  =      -116.81263613
  PAW double counting   =      3226.95325816    -2978.06409795
  entropy T*S    EENTRO =        -0.00938140
  eigenvalues    EBANDS =       300.63506849
  atomic energy  EATOM  =      3239.00805526
  ---------------------------------------------------
  free energy    TOTEN  =       -21.89481982 eV

  energy without entropy =      -21.88543842  energy(sigma->0) =      -21.89169269


--------------------------------------------------------------------------------------------------------




----------------------------------------- Iteration    1(   4)  ---------------------------------------


     EDDAV:  cpu time    2.10: real time    2.13
       DOS:  cpu time    0.02: real time    0.02
    --------------------------------------------
      LOOP:  cpu time    2.12: real time    2.15

 eigenvalue-minimisations  :  2744
 total energy-change (2. order) :-0.6194805E-01  (-0.6189327E-01)
 number of electron      40.0000000 magnetization 
 augmentation part       40.0000000 magnetization 

 Free energy of the ion-electron system (eV)
  ---------------------------------------------------
  alpha Z        PSCENC =       172.17182311
  Ewald energy   TEWEN  =     -3362.26702177
  -Hartree energ DENC   =      -503.50988759
  -exchange      EXHF   =         0.00000000
  -V(xc)+E(xc)   XCENC  =      -116.81263613
  PAW double counting   =      3226.95325816    -2978.06409795
  entropy T*S    EENTRO =        -0.00940504
  eigenvalues    EBANDS =       300.57314408
  atomic energy  EATOM  =      3239.00805526
  ---------------------------------------------------
  free energy    TOTEN  =       -21.95676787 eV

  energy without entropy =      -21.94736283  energy(sigma->0) =      -21.95363285


--------------------------------------------------------------------------------------------------------




----------------------------------------- Iteration    1(   5)  ---------------------------------------


     EDDAV:  cpu time    2.25: real time    2.27
       DOS:  cpu time    0.02: real time    0.02
    CHARGE:  cpu time    0.16: real time    0.16
    MIXING:  cpu time    0.00: real time    0.00
    --------------------------------------------
      LOOP:  cpu time    2.43: real time    2.46

 eigenvalue-minimisations  :  2976
 total energy-change (2. order) :-0.9756419E-03  (-0.9756197E-03)
 number of electron      39.9999982 magnetization 
 augmentation part       15.9510376 magnetization 

 Broyden mixing:
  rms(total) = 0.14414E+01    rms(broyden)= 0.14414E+01
  rms(prec ) = 0.21204E+01
  weight for this iteration     100.00

 Free energy of the ion-electron system (eV)
  ---------------------------------------------------
  alpha Z        PSCENC =       172.17182311
  Ewald energy   TEWEN  =     -3362.26702177
  -Hartree energ DENC   =      -503.50988759
  -exchange      EXHF   =         0.00000000
  -V(xc)+E(xc)   XCENC  =      -116.81263613
  PAW double counting   =      3226.95325816    -2978.06409795
  entropy T*S    EENTRO =        -0.00940766
  eigenvalues    EBANDS =       300.57217106
  atomic energy  EATOM  =      3239.00805526
  ---------------------------------------------------
  free energy    TOTEN  =       -21.95774351 eV

  energy without entropy =      -21.94833585  energy(sigma->0) =      -21.95460762


--------------------------------------------------------------------------------------------------------




----------------------------------------- Iteration    1(   6)  ---------------------------------------


    POTLOK:  cpu time    0.02: real time    0.02
    SETDIJ:  cpu time    0.01: real time    0.01
    EDDIAG:  cpu time    0.36: real time    0.36
  RMM-DIIS:  cpu time    1.22: real time    1.23
    ORTHCH:  cpu time    0.03: real time    0.03
       DOS:  cpu time    0.02: real time    0.02
    CHARGE:  cpu time    0.16: real time    0.16
    MIXING:  cpu time    0.00: real time    0.00
    --------------------------------------------
      LOOP:  cpu time    1.81: real time    1.83

 eigenvalue-minimisations  :  2688
 total energy-change (2. order) : 0.1048904E+01  (-0.3692378E+00)
 number of electron      39.9999981 magnetization 
 augmentation part       16.7163827 magnetization 

 Broyden mixing:
  rms(total) = 0.70690E+00    rms(broyden)= 0.70690E+00
  rms(prec ) = 0.73010E+00
  weight for this iteration     100.00

 eigenvalues of (default mixing * dielectric matrix)
  average eigenvalue GAMMA=   1.5457
  1.5457

 Free energy of the ion-electron system (eV)
  ---------------------------------------------------
  alpha Z        PSCENC =       172.17182311
  Ewald energy   TEWEN  =     -3362.26702177
  -Hartree energ DENC   =      -470.14986493
  -exchange      EXHF   =         0.00000000
  -V(xc)+E(xc)   XCENC  =      -117.76083861
  PAW double counting   =      3461.53055040    -3218.33980115
  entropy T*S    EENTRO =        -0.00243041
  eigenvalues    EBANDS =       274.90068894
  atomic energy  EATOM  =      3239.00805526
  ---------------------------------------------------
  free energy    TOTEN  =       -20.90883917 eV

  energy without entropy =      -20.90640875  energy(sigma->0) =      -20.90802903


--------------------------------------------------------------------------------------------------------




----------------------------------------- Iteration    1(   7)  ---------------------------------------


    POTLOK:  cpu time    0.02: real time    0.02
    SETDIJ:  cpu time    0.01: real time    0.01
    EDDIAG:  cpu time    0.36: real time    0.36
  RMM-DIIS:  cpu time    1.22: real time    1.23
    ORTHCH:  cpu time    0.03: real time    0.04
       DOS:  cpu time    0.02: real time    0.02
    CHARGE:  cpu time    0.16: real time    0.16
    MIXING:  cpu time    0.00: real time    0.00
    --------------------------------------------
      LOOP:  cpu time    1.82: real time    1.84

 eigenvalue-minimisations  :  2688
 total energy-change (2. order) : 0.3395681E-01  (-0.5262372E-02)
 number of electron      39.9999981 magnetization 
 augmentation part       16.7829899 magnetization 

 Broyden mixing:
  rms(total) = 0.35816E+00    rms(broyden)= 0.35816E+00
  rms(prec ) = 0.36169E+00
  weight for this iteration     100.00

 eigenvalues of (default mixing * dielectric matrix)
  average eigenvalue GAMMA=   1.7996
  1.0695  2.5297

 Free energy of the ion-electron system (eV)
  ---------------------------------------------------
  alpha Z        PSCENC =       172.17182311
  Ewald energy   TEWEN  =     -3362.26702177
  -Hartree energ DENC   =      -465.91950466
  -exchange      EXHF   =         0.00000000
  -V(xc)+E(xc)   XCENC  =      -117.88290436
  PAW double counting   =      3645.30802058    -3404.62862089
  entropy T*S    EENTRO =        -0.00218934
  eigenvalues    EBANDS =       273.33745970
  atomic energy  EATOM  =      3239.00805526
  ---------------------------------------------------
  free energy    TOTEN  =       -20.87488236 eV

  energy without entropy =      -20.87269302  energy(sigma->0) =      -20.87415258


--------------------------------------------------------------------------------------------------------




----------------------------------------- Iteration    1(   8)  ---------------------------------------


    POTLOK:  cpu time    0.02: real time    0.02
    SETDIJ:  cpu time    0.01: real time    0.01
    EDDIAG:  cpu time    0.36: real time    0.36
  RMM-DIIS:  cpu time    1.22: real time    1.23
    ORTHCH:  cpu time    0.03: real time    0.03
       DOS:  cpu time    0.02: real time    0.02
    CHARGE:  cpu time    0.16: real time    0.17
    MIXING:  cpu time    0.00: real time    0.00
    --------------------------------------------
      LOOP:  cpu time    1.82: real time    1.84

 eigenvalue-minimisations  :  2688
 total energy-change (2. order) : 0.1198237E-01  (-0.8828436E-03)
 number of electron      39.9999981 magnetization 
 augmentation part       16.7632013 magnetization 

 Broyden mixing:
  rms(total) = 0.13613E-01    rms(broyden)= 0.13613E-01
  rms(prec ) = 0.22635E-01
  weight for this iteration     100.00

 eigenvalues of (default mixing * dielectric matrix)
  average eigenvalue GAMMA=   1.5622
  2.4576  1.1144  1.1144

 Free energy of the ion-electron system (eV)
  ---------------------------------------------------
  alpha Z        PSCENC =       172.17182311
  Ewald energy   TEWEN  =     -3362.26702177
  -Hartree energ DENC   =      -464.44006167
  -exchange      EXHF   =         0.00000000
  -V(xc)+E(xc)   XCENC  =      -117.92802385
  PAW double counting   =      3843.47152628    -3605.12939592
  entropy T*S    EENTRO =        -0.00225653
  eigenvalues    EBANDS =       274.25245510
  atomic energy  EATOM  =      3239.00805526
  ---------------------------------------------------
  free energy    TOTEN  =       -20.86289999 eV

  energy without entropy =      -20.86064346  energy(sigma->0) =      -20.86214781


--------------------------------------------------------------------------------------------------------




----------------------------------------- Iteration    1(   9)  ---------------------------------------


    POTLOK:  cpu time    0.02: real time    0.02
    SETDIJ:  cpu time    0.01: real time    0.01
    EDDIAG:  cpu time    0.36: real time    0.36
  RMM-DIIS:  cpu time    1.22: real time    1.23
    ORTHCH:  cpu time    0.03: real time    0.03
       DOS:  cpu time    0.02: real time    0.02
    CHARGE:  cpu time    0.16: real time    0.16
    MIXING:  cpu time    0.00: real time    0.00
    --------------------------------------------
      LOOP:  cpu time    1.82: real time    1.83

 eigenvalue-minimisations  :  2688
 total energy-change (2. order) : 0.2161047E-03  (-0.1111765E-03)
 number of electron      39.9999981 magnetization 
 augmentation part       16.7757761 magnetization 

 Broyden mixing:
  rms(total) = 0.31693E-02    rms(broyden)= 0.31693E-02
  rms(prec ) = 0.47326E-02
  weight for this iteration     100.00

 eigenvalues of (default mixing * dielectric matrix)
  average eigenvalue GAMMA=   1.7386
  0.9871  0.9871  2.6571  2.3234

 Free energy of the ion-electron system (eV)
  ---------------------------------------------------
  alpha Z        PSCENC =       172.17182311
  Ewald energy   TEWEN  =     -3362.26702177
  -Hartree energ DENC   =      -464.04604323
  -exchange      EXHF   =         0.00000000
  -V(xc)+E(xc)   XCENC  =      -117.93873307
  PAW double counting   =      3839.85153797    -3601.43597774
  entropy T*S    EENTRO =        -0.00216731
  eigenvalues    EBANDS =       273.79584290
  atomic energy  EATOM  =      3239.00805526
  ---------------------------------------------------
  free energy    TOTEN  =       -20.86268389 eV

  energy without entropy =      -20.86051658  energy(sigma->0) =      -20.86196145


--------------------------------------------------------------------------------------------------------




----------------------------------------- Iteration    1(  10)  ---------------------------------------


    POTLOK:  cpu time    0.02: real time    0.02
    SETDIJ:  cpu time    0.01: real time    0.01
    EDDIAG:  cpu time    0.36: real time    0.36
  RMM-DIIS:  cpu time    0.84: real time    0.85
    ORTHCH:  cpu time    0.03: real time    0.03
       DOS:  cpu time    0.02: real time    0.02
    CHARGE:  cpu time    0.16: real time    0.16
    MIXING:  cpu time    0.00: real time    0.00
    --------------------------------------------
      LOOP:  cpu time    1.43: real time    1.45

 eigenvalue-minimisations  :  1711
 total energy-change (2. order) :-0.2302018E-04  (-0.3400618E-05)
 number of electron      39.9999981 magnetization 
 augmentation part       16.7760019 magnetization 

 Broyden mixing:
  rms(total) = 0.18485E-02    rms(broyden)= 0.18485E-02
  rms(prec ) = 0.26217E-02
  weight for this iteration     100.00

 eigenvalues of (default mixing * dielectric matrix)
  average eigenvalue GAMMA=   1.6828
  2.6134  2.6134  1.0328  1.0328  1.1215

 Free energy of the ion-electron system (eV)
  ---------------------------------------------------
  alpha Z        PSCENC =       172.17182311
  Ewald energy   TEWEN  =     -3362.26702177
  -Hartree energ DENC   =      -464.08539168
  -exchange      EXHF   =         0.00000000
  -V(xc)+E(xc)   XCENC  =      -117.93785802
  PAW double counting   =      3843.36996038    -3604.90781858
  entropy T*S    EENTRO =        -0.00217122
  eigenvalues    EBANDS =       273.78771562
  atomic energy  EATOM  =      3239.00805526
  ---------------------------------------------------
  free energy    TOTEN  =       -20.86270691 eV

  energy without entropy =      -20.86053568  energy(sigma->0) =      -20.86198317


--------------------------------------------------------------------------------------------------------




----------------------------------------- Iteration    1(  11)  ---------------------------------------


    POTLOK:  cpu time    0.02: real time    0.02
    SETDIJ:  cpu time    0.01: real time    0.01
    EDDIAG:  cpu time    0.35: real time    0.36
  RMM-DIIS:  cpu time    0.69: real time    0.70
    ORTHCH:  cpu time    0.03: real time    0.03
       DOS:  cpu time    0.02: real time    0.02
    --------------------------------------------
      LOOP:  cpu time    1.13: real time    1.14

 eigenvalue-minimisations  :  1379
 total energy-change (2. order) : 0.3962827E-05  (-0.6664204E-06)
 number of electron      39.9999981 magnetization 
 augmentation part       16.7760019 magnetization 

 Free energy of the ion-electron system (eV)
  ---------------------------------------------------
  alpha Z        PSCENC =       172.17182311
  Ewald energy   TEWEN  =     -3362.26702177
  -Hartree energ DENC   =      -464.13872487
  -exchange      EXHF   =         0.00000000
  -V(xc)+E(xc)   XCENC  =      -117.93640941
  PAW double counting   =      3842.34787263    -3603.86321829
  entropy T*S    EENTRO =        -0.00217822
  eigenvalues    EBANDS =       273.81709862
  atomic energy  EATOM  =      3239.00805526
  ---------------------------------------------------
  free energy    TOTEN  =       -20.86270294 eV

  energy without entropy =      -20.86052472  energy(sigma->0) =      -20.86197687


--------------------------------------------------------------------------------------------------------




 average (electrostatic) potential at core
  the test charge radii are     1.1199
  (the norm of the test charge is              1.0000)
       1 -70.8648       2 -70.8648       3 -70.8648       4 -70.8648
 
 
 
 E-fermi :   9.3407     XC(G=0): -13.0207     alpha+bet :-16.2626


 k-point     1 :       0.0000    0.0000    0.0000
  band No.  band energies     occupation 
      1       2.4079      2.00000
      2       4.1767      2.00000
      3       4.1767      2.00000
      4       4.1767      2.00000
      5       4.4522      2.00000
      6       4.4522      2.00000
      7       4.4522      2.00000
      8       6.6282      2.00000
      9       6.6282      2.00000
     10       6.6282      2.00000
     11       8.1741      2.00000
     12       8.1741      2.00000
     13       9.2980      1.65411
     14       9.2980      1.65411
     15       9.2980      1.65411
     16       9.6241     -0.00046
     17       9.6241     -0.00046
     18       9.6241     -0.00046
     19       9.6241     -0.00046
     20       9.6241     -0.00046
     21       9.6241     -0.00046
     22      12.6973      0.00000
     23      12.6973      0.00000
     24      12.6973      0.00000

 k-point     2 :       0.0909    0.0000    0.0000
  band No.  band energies     occupation 
      1       2.5063      2.00000
      2       4.2225      2.00000
      3       4.2393      2.00000
      4       4.2393      2.00000
      5       4.4894      2.00000
      6       4.5081      2.00000
      7       4.5081      2.00000
      8       6.5750      2.00000
      9       6.6719      2.00000
     10       6.6719      2.00000
     11       8.1193      2.00000
     12       8.1951      2.00000
     13       9.2227      2.07026
     14       9.2227      2.07026
     15       9.2733      1.90096
     16       9.2979      1.65571
     17       9.2979      1.65571
     18       9.5341     -0.01966
     19       9.5341     -0.01966
     20       9.6243     -0.00045
     21       9.6243     -0.00045
     22      12.2145      0.00000
     23      13.0920      0.00000
     24      13.0920      0.00000

 k-point     3 :       0.1818    0.0000    0.0000
  band No.  band energies     occupation 
      1       2.7948      2.00000
      2       4.3505      2.00000
      3       4.4183      2.00000
      4       4.4183      2.00000
      5       4.5993      2.00000
      6       4.6753      2.00000
      7       4.6753      2.00000
      8       6.4227      2.00000
      9       6.8020      2.00000
     10       6.8020      2.00000
     11       7.9656      2.00000
     12       8.2568      2.00000
     13       8.6016      2.00000
     14       8.6016      2.00000
     15       9.0081      2.00003
     16       9.0081      2.00003
     17       9.2015      2.06416
     18       9.2835      1.81350
     19       9.2835      1.81350
     20       9.6247     -0.00044
     21       9.6247     -0.00044
     22      11.1089     -0.00000
     23      13.9914      0.00000
     24      13.9914      0.00000

 k-point     4 :       0.2727    0.0000    0.0000
  band No.  band energies     occupation 
      1       3.2502      2.00000
      2       4.5288      2.00000
      3       4.6833      2.00000
      4       4.6833      2.00000
      5       4.7765      2.00000
      6       4.9526      2.00000
      7       4.9526      2.00000
      8       6.1907      2.00000
      9       7.0151      2.00000
     10       7.0151      2.00000
     11       7.7488      2.00000
     12       7.8285      2.00000
     13       7.8285      2.00000
     14       8.3552      2.00000
     15       8.6931      2.00000
     16       8.6931      2.00000
     17       8.9202      2.00000
     18       8.9202      2.00000
     19       9.0900      2.00225
     20       9.6253     -0.00043
     21       9.6253     -0.00043
     22       9.8445     -0.00000
     23      15.0955      0.00000
     24      15.0955      0.00000

 k-point     5 :       0.3636    0.0000    0.0000
  band No.  band energies     occupation 
      1       3.8159      2.00000
      2       4.6857      2.00000
      3       4.9721      2.00000
      4       4.9721      2.00000
      5       5.0117      2.00000
      6       5.3374      2.00000
      7       5.3374      2.00000
      8       5.9058      2.00000
      9       7.0855      2.00000
     10       7.0855      2.00000
     11       7.3050      2.00000
     12       7.3050      2.00000
     13       7.5440      2.00000
     14       8.3553      2.00000
     15       8.3553      2.00000
     16       8.4837      2.00000
     17       8.4990      2.00000
     18       8.4990      2.00000
     19       8.6898      2.00000
     20       8.9495      2.00000
     21       9.6258     -0.00042
     22       9.6258     -0.00042
     23      16.2852      0.00000
     24      16.2852      0.00000

 k-point     6 :       0.4545    0.0000    0.0000
  band No.  band energies     occupation 
      1       4.3633      2.00000
      2       4.6799      2.00000
      3       5.1759      2.00000
      4       5.1759      2.00000
      5       5.2913      2.00000
      6       5.5970      2.00000
      7       5.8259      2.00000
      8       5.8259      2.00000
      9       6.4119      2.00000
     10       6.4119      2.00000
     11       7.5021      2.00000
     12       7.6613      2.00000
     13       7.6613      2.00000
     14       7.8545      2.00000
     15       8.0675      2.00000
     16       8.0675      2.00000
     17       8.1209      2.00000
     18       8.1209      2.00000
     19       8.6333      2.00000
     20       8.7928      2.00000
     21       9.6261     -0.00041
     22       9.6261     -0.00041
     23      17.5024      0.00000
     24      17.5024      0.00000

 k-point     7 :       0.0909    0.0909    0.0000
  band No.  band energies     occupation 
      1       2.6030      2.00000
      2       4.2856      2.00000
      3       4.2856      2.00000
      4       4.2937      2.00000
      5       4.5444      2.00000
      6       4.5444      2.00000
      7       4.5695      2.00000
      8       6.5511      2.00000
      9       6.6882      2.00000
     10       6.7114      2.00000
     11       8.1040      2.00000
     12       8.1823      2.00000
     13       9.0823      2.00158
     14       9.1038      2.00408
     15       9.1038      2.00408
     16       9.1519      2.02262
     17       9.2947      1.69382
     18       9.2947      1.69382
     19       9.5340     -0.01974
     20       9.5340     -0.01974
     21       9.5649     -0.00678
     22      12.6082      0.00000
     23      12.6082      0.00000
     24      13.4361      0.00000

 k-point     8 :       0.1818    0.0909    0.0000
  band No.  band energies     occupation 
      1       2.8868      2.00000
      2       4.4154      2.00000
      3       4.4512      2.00000
      4       4.4663      2.00000
      5       4.6517      2.00000
      6       4.7090      2.00000
      7       4.7498      2.00000
      8       6.4179      2.00000
      9       6.8044      2.00000
     10       6.8268      2.00000
     11       7.9725      2.00000
     12       8.2403      2.00000
     13       8.4538      2.00000
     14       8.4892      2.00000
     15       8.8206      2.00000
     16       8.9497      2.00000
     17       9.0396      2.00018
     18       9.2265      2.06852
     19       9.2827      1.82158
     20       9.5335     -0.02001
     21       9.5337     -0.01989
     22      11.5267     -0.00000
     23      13.4742      0.00000
     24      14.2656      0.00000

 k-point     9 :       0.2727    0.0909    0.0000
  band No.  band energies     occupation 
      1       3.3344      2.00000
      2       4.5967      2.00000
      3       4.6955      2.00000
      4       4.7345      2.00000
      5       4.8246      2.00000
      6       4.9817      2.00000
      7       5.0335      2.00000
      8       6.1969      2.00000
      9       7.0025      2.00000
     10       7.0142      2.00000
     11       7.7028      2.00000
     12       7.7719      2.00000
     13       7.7834      2.00000
     14       8.3538      2.00000
     15       8.4068      2.00000
     16       8.6508      2.00000
     17       8.7232      2.00000
     18       8.9185      2.00000
     19       9.0893      2.00218
     20       9.5271     -0.02415
     21       9.5327     -0.02051
     22      10.3441     -0.00000
     23      14.5004      0.00000
     24      15.3237      0.00000

 k-point    10 :       0.3636    0.0909    0.0000
  band No.  band energies     occupation 
      1       3.8912      2.00000
      2       4.7571      2.00000
      3       4.9870      2.00000
      4       5.0275      2.00000
      5       5.0539      2.00000
      6       5.3595      2.00000
      7       5.3945      2.00000
      8       5.9221      2.00000
      9       6.9885      2.00000
     10       7.0618      2.00000
     11       7.1604      2.00000
     12       7.3029      2.00000
     13       7.6911      2.00000
     14       7.8982      2.00000
     15       8.3299      2.00000
     16       8.3815      2.00000
     17       8.4967      2.00000
     18       8.5060      2.00000
     19       8.8507      2.00000
     20       9.3851      0.32365
     21       9.5266     -0.02450
     22       9.5314     -0.02130
     23      15.5635      0.00000
     24      16.4852      0.00000

 k-point    11 :       0.4545    0.0909    0.0000
  band No.  band energies     occupation 
      1       4.4336      2.00000
      2       4.7520      2.00000
      3       5.2178      2.00000
      4       5.2327      2.00000
      5       5.3260      2.00000
      6       5.6229      2.00000
      7       5.8249      2.00000
      8       5.8378      2.00000
      9       6.3547      2.00000
     10       6.4094      2.00000
     11       7.2084      2.00000
     12       7.4249      2.00000
     13       7.6587      2.00000
     14       7.9196      2.00000
     15       8.0649      2.00000
     16       8.1137      2.00000
     17       8.1335      2.00000
     18       8.3781      2.00000
     19       8.6904      2.00000
     20       8.9205      2.00000
     21       9.5280     -0.02357
     22       9.5298     -0.02237
     23      16.5969      0.00000
     24      17.5591      0.00000

 k-point    12 :       0.1818    0.1818    0.0000
  band No.  band energies     occupation 
      1       3.1561      2.00000
      2       4.5619      2.00000
      3       4.6015      2.00000
      4       4.6015      2.00000
      5       4.8084      2.00000
      6       4.8084      2.00000
      7       4.9518      2.00000
      8       6.3561      2.00000
      9       6.8639      2.00000
     10       6.8974      2.00000
     11       7.9246      2.00000
     12       8.1217      2.00000
     13       8.1217      2.00000
     14       8.1314      2.00000
     15       8.2706      2.00000
     16       8.7801      2.00000
     17       9.0339      2.00013
     18       9.0339      2.00013
     19       9.2802      1.84408
     20       9.2802      1.84408
     21       9.3909      0.25676
     22      12.3616      0.00000
     23      12.3616      0.00000
     24      14.9761      0.00000

 k-point    13 :       0.2727    0.1818    0.0000
  band No.  band energies     occupation 
      1       3.5801      2.00000
      2       4.7608      2.00000
      3       4.7924      2.00000
      4       4.8797      2.00000
      5       4.9680      2.00000
      6       5.0670      2.00000
      7       5.2393      2.00000
      8       6.1933      2.00000
      9       6.9866      2.00000
     10       7.0371      2.00000
     11       7.4042      2.00000
     12       7.5879      2.00000
     13       7.7016      2.00000
     14       7.7987      2.00000
     15       8.4228      2.00000
     16       8.5243      2.00000
     17       8.7405      2.00000
     18       8.9141      2.00000
     19       8.9250      2.00000
     20       9.2765      1.87581
     21       9.3117      1.46798
     22      11.1730     -0.00000
     23      13.2973      0.00000
     24      15.9409      0.00000

 k-point    14 :       0.3636    0.1818    0.0000
  band No.  band energies     occupation 
      1       4.1083      2.00000
      2       4.9639      2.00000
      3       5.0374      2.00000
      4       5.1786      2.00000
      5       5.1874      2.00000
      6       5.4236      2.00000
      7       5.5550      2.00000
      8       5.9604      2.00000
      9       6.7507      2.00000
     10       6.9836      2.00000
     11       6.9987      2.00000
     12       7.2653      2.00000
     13       7.3094      2.00000
     14       7.7790      2.00000
     15       8.2474      2.00000
     16       8.4060      2.00000
     17       8.4914      2.00000
     18       8.6613      2.00000
     19       8.6975      2.00000
     20       9.2723      1.90843
     21       9.2798      1.84769
     22      10.1611     -0.00000
     23      14.2427      0.00000
     24      16.9842      0.00000

 k-point    15 :       0.4545    0.1818    0.0000
  band No.  band energies     occupation 
      1       4.6330      2.00000
      2       4.9585      2.00000
      3       5.3244      2.00000
      4       5.3978      2.00000
      5       5.4270      2.00000
      6       5.6953      2.00000
      7       5.8448      2.00000
      8       5.8712      2.00000
      9       6.2105      2.00000
     10       6.3981      2.00000
     11       6.9100      2.00000
     12       6.9539      2.00000
     13       7.6576      2.00000
     14       8.0002      2.00000
     15       8.0604      2.00000
     16       8.0759      2.00000
     17       8.1383      2.00000
     18       8.3588      2.00000
     19       8.9823      2.00000
     20       9.2690      1.93098
     21       9.2696      1.92678
     22       9.4432     -0.05503
     23      15.1656      0.00000
     24      16.0681      0.00000

 k-point    16 :       0.2727    0.2727    0.0000
  band No.  band energies     occupation 
      1       3.9636      2.00000
      2       4.9055      2.00000
      3       5.0888      2.00000
      4       5.0888      2.00000
      5       5.2031      2.00000
      6       5.2031      2.00000
      7       5.5146      2.00000
      8       6.1309      2.00000
      9       6.9788      2.00000
     10       7.0397      2.00000
     11       7.0397      2.00000
     12       7.1421      2.00000
     13       7.2630      2.00000
     14       7.7118      2.00000
     15       8.3243      2.00000
     16       8.6563      2.00000
     17       8.6595      2.00000
     18       8.6595      2.00000
     19       8.9086      2.00000
     20       8.9086      2.00000
     21       9.1143      2.00623
     22      12.0490     -0.00000
     23      12.0490     -0.00000
     24      16.7610      0.00000

 k-point    17 :       0.3636    0.2727    0.0000
  band No.  band energies     occupation 
      1       4.4389      2.00000
      2       5.1352      2.00000
      3       5.2807      2.00000
      4       5.3804      2.00000
      5       5.4271      2.00000
      6       5.5235      2.00000
      7       5.7880      2.00000
      8       5.9902      2.00000
      9       6.4605      2.00000
     10       6.7048      2.00000
     11       6.8327      2.00000
     12       6.9043      2.00000
     13       7.3608      2.00000
     14       7.6774      2.00000
     15       8.1003      2.00000
     16       8.3447      2.00000
     17       8.4530      2.00000
     18       8.4876      2.00000
     19       8.9052      2.00000
     20       8.9926      2.00001
     21       9.0191      2.00005
     22      10.9643     -0.00000
     23      12.9286      0.00000
     24      15.6652      0.00000

 k-point    18 :       0.4545    0.2727    0.0000
  band No.  band energies     occupation 
      1       4.9230      2.00000
      2       5.2626      2.00000
      3       5.4381      2.00000
      4       5.5849      2.00000
      5       5.6522      2.00000
      6       5.7970      2.00000
      7       5.9176      2.00000
      8       5.9459      2.00000
      9       6.0337      2.00000
     10       6.3655      2.00000
     11       6.5700      2.00000
     12       6.7103      2.00000
     13       7.6778      2.00000
     14       7.8468      2.00000
     15       7.9742      2.00000
     16       8.0642      2.00000
     17       8.0714      2.00000
     18       8.1497      2.00000
     19       8.9100      2.00000
     20       8.9332      2.00000
     21       9.4928     -0.05341
     22      10.1186     -0.00000
     23      13.8061      0.00000
     24      14.7033      0.00000

 k-point    19 :       0.3636    0.3636    0.0000
  band No.  band energies     occupation 
      1       4.8344      2.00000
      2       5.2927      2.00000
      3       5.6482      2.00000
      4       5.6482      2.00000
      5       5.6557      2.00000
      6       5.6557      2.00000
      7       5.9742      2.00000
      8       6.0283      2.00000
      9       6.2272      2.00000
     10       6.2272      2.00000
     11       6.5973      2.00000
     12       6.8258      2.00000
     13       7.5017      2.00000
     14       7.5513      2.00000
     15       7.9139      2.00000
     16       8.1592      2.00000
     17       8.1592      2.00000
     18       8.4941      2.00000
     19       8.4941      2.00000
     20       8.7556      2.00000
     21       9.5095     -0.03813
     22      11.7818     -0.00000
     23      11.7818     -0.00000
     24      14.5162      0.00000

 k-point    20 :       0.4545    0.3636    0.0000
  band No.  band energies     occupation 
      1       5.2322      2.00000
      2       5.5210      2.00000
      3       5.5664      2.00000
      4       5.7810      2.00000
      5       5.8238      2.00000
      6       5.8988      2.00000
      7       5.9628      2.00000
      8       6.0042      2.00000
      9       6.1441      2.00000
     10       6.2934      2.00000
     11       6.3288      2.00000
     12       6.6218      2.00000
     13       7.6229      2.00000
     14       7.7517      2.00000
     15       7.7991      2.00000
     16       7.8805      2.00000
     17       7.8968      2.00000
     18       8.0944      2.00000
     19       8.5254      2.00000
     20       8.6038      2.00000
     21      10.1081     -0.00000
     22      10.8483     -0.00000
     23      12.6223      0.00000
     24      13.5175      0.00000

 k-point    21 :       0.4545    0.4545    0.0000
  band No.  band energies     occupation 
      1       5.4837      2.00000
      2       5.6012      2.00000
      3       5.6693      2.00000
      4       5.6693      2.00000
      5       5.9678      2.00000
      6       5.9865      2.00000
      7       5.9865      2.00000
      8       6.1662      2.00000
      9       6.3189      2.00000
     10       6.3189      2.00000
     11       6.3200      2.00000
     12       6.5484      2.00000
     13       7.5115      2.00000
     14       7.6311      2.00000
     15       7.6551      2.00000
     16       7.6551      2.00000
     17       7.9136      2.00000
     18       8.1780      2.00000
     19       8.1780      2.00000
     20       8.3438      2.00000
     21      10.8110     -0.00000
     22      11.6332     -0.00000
     23      11.6332     -0.00000
     24      12.5067      0.00000

 k-point    22 :       0.0909    0.0909    0.0909
  band No.  band energies     occupation 
      1       2.6978      2.00000
      2       4.3394      2.00000
      3       4.3394      2.00000
      4       4.3394      2.00000
      5       4.6059      2.00000
      6       4.6059      2.00000
      7       4.6059      2.00000
      8       6.5327      2.00000
      9       6.7239      2.00000
     10       6.7239      2.00000
     11       8.1319      2.00000
     12       8.1319      2.00000
     13       8.9760      2.00000
     14       8.9760      2.00000
     15       8.9760      2.00000
     16       9.0812      2.00150
     17       9.0812      2.00150
     18       9.0812      2.00150
     19       9.5312     -0.02147
     20       9.5312     -0.02147
     21       9.5312     -0.02147
     22      12.9415      0.00000
     23      12.9415      0.00000
     24      12.9415      0.00000

 k-point    23 :       0.1818    0.0909    0.0909
  band No.  band energies     occupation 
      1       2.9756      2.00000
      2       4.4671      2.00000
      3       4.4956      2.00000
      4       4.4956      2.00000
      5       4.7138      2.00000
      6       4.7859      2.00000
      7       4.7859      2.00000
      8       6.4185      2.00000
      9       6.8218      2.00000
     10       6.8304      2.00000
     11       7.9951      2.00000
     12       8.2136      2.00000
     13       8.3651      2.00000
     14       8.3651      2.00000
     15       8.6749      2.00000
     16       8.8811      2.00000
     17       8.9086      2.00000
     18       8.9086      2.00000
     19       9.4359     -0.03899
     20       9.5007     -0.04608
     21       9.5007     -0.04608
     22      11.8475     -0.00000
     23      13.7273      0.00000
     24      13.7273      0.00000

 k-point    24 :       0.2727    0.0909    0.0909
  band No.  band energies     occupation 
      1       3.4131      2.00000
      2       4.6440      2.00000
      3       4.7392      2.00000
      4       4.7392      2.00000
      5       4.8889      2.00000
      6       5.0672      2.00000
      7       5.0672      2.00000
      8       6.2119      2.00000
      9       6.9908      2.00000
     10       7.0058      2.00000
     11       7.6589      2.00000
     12       7.6589      2.00000
     13       7.8317      2.00000
     14       8.2243      2.00000
     15       8.3431      2.00000
     16       8.5854      2.00000
     17       8.6415      2.00000
     18       8.6415      2.00000
     19       9.2914      1.73233
     20       9.4744     -0.06758
     21       9.4744     -0.06758
     22      10.6457     -0.00000
     23      14.7002      0.00000
     24      14.7002      0.00000

 k-point    25 :       0.3636    0.0909    0.0909
  band No.  band energies     occupation 
      1       3.9566      2.00000
      2       4.8009      2.00000
      3       5.0342      2.00000
      4       5.0342      2.00000
      5       5.1186      2.00000
      6       5.4173      2.00000
      7       5.4173      2.00000
      8       5.9508      2.00000
      9       6.9787      2.00000
     10       6.9787      2.00000
     11       7.1024      2.00000
     12       7.2455      2.00000
     13       7.7000      2.00000
     14       7.8225      2.00000
     15       8.2380      2.00000
     16       8.3324      2.00000
     17       8.3324      2.00000
     18       8.5111      2.00000
     19       9.1111      2.00550
     20       9.4604     -0.07067
     21       9.4604     -0.07067
     22       9.5799     -0.00370
     23      15.7263      0.00000
     24      15.7263      0.00000

 k-point    26 :       0.4545    0.0909    0.0909
  band No.  band energies     occupation 
      1       4.4864      2.00000
      2       4.7981      2.00000
      3       5.2723      2.00000
      4       5.2723      2.00000
      5       5.3825      2.00000
      6       5.6657      2.00000
      7       5.8073      2.00000
      8       5.8073      2.00000
      9       6.3900      2.00000
     10       6.3900      2.00000
     11       7.0978      2.00000
     12       7.2618      2.00000
     13       7.5414      2.00000
     14       7.8795      2.00000
     15       8.1081      2.00000
     16       8.1081      2.00000
     17       8.1532      2.00000
     18       8.7050      2.00000
     19       8.7471      2.00000
     20       8.9103      2.00000
     21       9.4547     -0.06848
     22       9.4547     -0.06848
     23      16.7226      0.00000
     24      16.7226      0.00000

 k-point    27 :       0.1818    0.1818    0.0909
  band No.  band energies     occupation 
      1       3.2351      2.00000
      2       4.5996      2.00000
      3       4.6177      2.00000
      4       4.6177      2.00000
      5       4.8948      2.00000
      6       4.8948      2.00000
      7       4.9907      2.00000
      8       6.3750      2.00000
      9       6.8698      2.00000
     10       6.8904      2.00000
     11       7.9787      2.00000
     12       8.0364      2.00000
     13       8.0551      2.00000
     14       8.0551      2.00000
     15       8.2297      2.00000
     16       8.6685      2.00000
     17       8.7434      2.00000
     18       8.7434      2.00000
     19       9.4155      0.04892
     20       9.4155      0.04892
     21       9.4237      0.00500
     22      12.5772      0.00000
     23      12.5772      0.00000
     24      14.3750      0.00000

 k-point    28 :       0.2727    0.1818    0.0909
  band No.  band energies     occupation 
      1       3.6412      2.00000
      2       4.7817      2.00000
      3       4.7918      2.00000
      4       4.8557      2.00000
      5       5.0760      2.00000
      6       5.1727      2.00000
      7       5.2764      2.00000
      8       6.2361      2.00000
      9       6.9742      2.00000
     10       7.0080      2.00000
     11       7.3823      2.00000
     12       7.5073      2.00000
     13       7.6432      2.00000
     14       7.8828      2.00000
     15       8.3904      2.00000
[...]
      4       4.9377      2.00000
      5       5.8490      2.00000
      6       5.8490      2.00000
      7       5.8490      2.00000
      8       6.8046      2.00000
      9       6.8847      2.00000
     10       6.8847      2.00000
     11       7.0088      2.00000
     12       7.0088      2.00000
     13       7.0088      2.00000
     14       7.6226      2.00000
     15       7.6226      2.00000
     16       7.6226      2.00000
     17       8.4248      2.00000
     18       8.4248      2.00000
     19       9.3963      0.20132
     20       9.3963      0.20132
     21       9.3963      0.20132
     22      12.8683      0.00000
     23      12.8683      0.00000
     24      12.8683      0.00000

 k-point    48 :       0.3636    0.2727    0.2727
  band No.  band energies     occupation 
      1       4.3625      2.00000
      2       4.8574      2.00000
      3       4.9791      2.00000
      4       4.9791      2.00000
      5       5.9797      2.00000
      6       5.9797      2.00000
      7       6.1263      2.00000
      8       6.7973      2.00000
      9       6.8869      2.00000
     10       6.9391      2.00000
     11       7.0365      2.00000
     12       7.0365      2.00000
     13       7.0544      2.00000
     14       7.3469      2.00000
     15       7.4572      2.00000
     16       7.4572      2.00000
     17       8.5852      2.00000
     18       8.7397      2.00000
     19       9.3149      1.42124
     20       9.3149      1.42124
     21       9.3686      0.54720
     22      11.4623     -0.00000
     23      13.3292      0.00000
     24      13.3292      0.00000

 k-point    49 :       0.4545    0.2727    0.2727
  band No.  band energies     occupation 
      1       4.5412      2.00000
      2       4.7160      2.00000
      3       5.0238      2.00000
      4       5.0238      2.00000
      5       5.9828      2.00000
      6       5.9828      2.00000
      7       6.4268      2.00000
      8       6.6626      2.00000
      9       6.9452      2.00000
     10       6.9669      2.00000
     11       7.0294      2.00000
     12       7.1231      2.00000
     13       7.1558      2.00000
     14       7.1558      2.00000
     15       7.3550      2.00000
     16       7.3550      2.00000
     17       9.0209      2.00006
     18       9.2221      2.07043
     19       9.2221      2.07043
     20       9.2246      2.06955
     21       9.2388      2.05401
     22      10.2266     -0.00000
     23      13.6624      0.00000
     24      13.6624      0.00000

 k-point    50 :       0.3636    0.3636    0.2727
  band No.  band energies     occupation 
      1       4.4007      2.00000
      2       4.8092      2.00000
      3       4.8092      2.00000
      4       4.8811      2.00000
      5       6.0965      2.00000
      6       6.2030      2.00000
      7       6.2030      2.00000
      8       6.7599      2.00000
      9       6.8096      2.00000
     10       7.1120      2.00000
     11       7.1120      2.00000
     12       7.2179      2.00000
     13       7.2862      2.00000
     14       7.2862      2.00000
     15       7.3336      2.00000
     16       7.5286      2.00000
     17       8.5984      2.00000
     18       9.1045      2.00420
     19       9.2711      1.91686
     20       9.3071      1.53449
     21       9.3071      1.53449
     22      11.9271     -0.00000
     23      11.9271     -0.00000
     24      13.3112      0.00000

 k-point    51 :       0.4545    0.3636    0.2727
  band No.  band energies     occupation 
      1       4.4945      2.00000
      2       4.6368      2.00000
      3       4.7995      2.00000
      4       4.8229      2.00000
      5       6.1624      2.00000
      6       6.1947      2.00000
      7       6.4366      2.00000
      8       6.6301      2.00000
      9       6.8468      2.00000
     10       6.9670      2.00000
     11       7.0801      2.00000
     12       7.0990      2.00000
     13       7.4297      2.00000
     14       7.5005      2.00000
     15       7.5311      2.00000
     16       7.6054      2.00000
     17       8.8739      2.00000
     18       9.1666      2.03358
     19       9.1864      2.05145
     20       9.1962      2.06004
     21       9.7212     -0.00000
     22      10.6884     -0.00000
     23      12.4633      0.00000
     24      12.9785      0.00000

 k-point    52 :       0.4545    0.4545    0.2727
  band No.  band energies     occupation 
      1       4.5241      2.00000
      2       4.6281      2.00000
      3       4.6281      2.00000
      4       4.6902      2.00000
      5       6.3134      2.00000
      6       6.4022      2.00000
      7       6.4022      2.00000
      8       6.5595      2.00000
      9       6.8110      2.00000
     10       6.9008      2.00000
     11       6.9008      2.00000
     12       6.9413      2.00000
     13       7.7859      2.00000
     14       7.7859      2.00000
     15       7.7985      2.00000
     16       7.9170      2.00000
     17       8.8295      2.00000
     18       9.0358      2.00014
     19       9.0358      2.00014
     20       9.0690      2.00083
     21      10.4185     -0.00000
     22      11.3370     -0.00000
     23      11.3370     -0.00000
     24      12.1216      0.00000

 k-point    53 :       0.3636    0.3636    0.3636
  band No.  band energies     occupation 
      1       4.3412      2.00000
      2       4.6560      2.00000
      3       4.6560      2.00000
      4       4.6560      2.00000
      5       6.2865      2.00000
      6       6.2865      2.00000
      7       6.2865      2.00000
      8       6.7238      2.00000
      9       6.7238      2.00000
     10       6.9815      2.00000
     11       6.9815      2.00000
     12       6.9815      2.00000
     13       7.6650      2.00000
     14       7.6650      2.00000
     15       7.6650      2.00000
     16       8.3070      2.00000
     17       8.9176      2.00000
     18       8.9176      2.00000
     19       9.3521      0.80742
     20       9.3521      0.80742
     21       9.3521      0.80742
     22      12.0316     -0.00000
     23      12.0316     -0.00000
     24      12.0316     -0.00000

 k-point    54 :       0.4545    0.3636    0.3636
  band No.  band energies     occupation 
      1       4.3680      2.00000
      2       4.4771      2.00000
      3       4.5786      2.00000
      4       4.5786      2.00000
      5       6.3325      2.00000
      6       6.3325      2.00000
      7       6.4770      2.00000
      8       6.6284      2.00000
      9       6.7251      2.00000
     10       6.8130      2.00000
     11       6.8770      2.00000
     12       6.8770      2.00000
     13       7.9894      2.00000
     14       7.9894      2.00000
     15       8.0088      2.00000
     16       8.3377      2.00000
     17       9.1662      2.03331
     18       9.2898      1.75005
     19       9.2898      1.75005
     20       9.3168      1.39089
     21       9.5932     -0.00206
     22      10.7507     -0.00000
     23      12.1098      0.00000
     24      12.1098      0.00000

 k-point    55 :       0.4545    0.4545    0.3636
  band No.  band energies     occupation 
      1       4.3418      2.00000
      2       4.4141      2.00000
      3       4.4141      2.00000
      4       4.4485      2.00000
      5       6.4432      2.00000
      6       6.4904      2.00000
      7       6.4904      2.00000
      8       6.6036      2.00000
      9       6.6637      2.00000
     10       6.7268      2.00000
     11       6.7268      2.00000
     12       6.7466      2.00000
     13       8.3884      2.00000
     14       8.4275      2.00000
     15       8.4275      2.00000
     16       8.7354      2.00000
     17       9.1003      2.00352
     18       9.2550      2.00646
     19       9.2554      2.00469
     20       9.2554      2.00469
     21      10.1240     -0.00000
     22      11.0660     -0.00000
     23      11.0660     -0.00000
     24      11.5782     -0.00000

 k-point    56 :       0.4545    0.4545    0.4545
  band No.  band energies     occupation 
      1       4.2687      2.00000
      2       4.3054      2.00000
      3       4.3054      2.00000
      4       4.3054      2.00000
      5       6.5471      2.00000
      6       6.5471      2.00000
      7       6.5471      2.00000
      8       6.6025      2.00000
      9       6.6025      2.00000
     10       6.6309      2.00000
     11       6.6309      2.00000
     12       6.6309      2.00000
     13       8.9388      2.00000
     14       8.9388      2.00000
     15       8.9388      2.00000
     16       9.2737      1.89789
     17       9.2737      1.89789
     18       9.3273      1.22361
     19       9.3273      1.22361
     20       9.3273      1.22361
     21      10.0673     -0.00000
     22      10.7994     -0.00000
     23      10.7994     -0.00000
     24      10.7994     -0.00000


--------------------------------------------------------------------------------------------------------


 soft charge-density along one line, spin component           1
         0         1         2         3         4         5         6         7         8         9
 total charge-density along one line
 
 pseudopotential strength for first ion, spin component:           1
 -2.289   0.000   0.000   0.000  -0.000  -2.532   0.000   0.000
  0.000  -2.289   0.000  -0.000  -0.000   0.000  -2.532   0.000
  0.000   0.000  -2.257   0.000   0.000   0.000   0.000  -2.501
  0.000  -0.000   0.000  -2.289   0.000   0.000  -0.000   0.000
 -0.000  -0.000   0.000   0.000  -2.257  -0.000  -0.000   0.000
 -2.532   0.000   0.000   0.000  -0.000  -2.741   0.000   0.000
  0.000  -2.532   0.000  -0.000  -0.000   0.000  -2.741   0.000
  0.000   0.000  -2.501   0.000   0.000   0.000   0.000  -2.712
  0.000  -0.000   0.000  -2.532   0.000   0.000  -0.000   0.000
 -0.000  -0.000   0.000   0.000  -2.501  -0.000  -0.000   0.000
  0.000  -0.000   0.000  -0.000   0.000   0.000  -0.000   0.000
  0.000  -0.000   0.000  -0.000   0.000   0.000  -0.000   0.000
 -0.000   0.000  -0.000   0.000  -0.000  -0.000   0.000  -0.000
  0.000   0.000   0.000  -0.000   0.000   0.000   0.000   0.000
  0.000   0.000  -0.000   0.000   0.000   0.000   0.000  -0.000
  0.000   0.000  -0.000   0.000  -0.000  -0.000   0.000  -0.000
  0.000   0.000   0.000  -0.000   0.000   0.000   0.000   0.000
  0.000   0.000  -0.000   0.000   0.000   0.000   0.000  -0.000
 total augmentation occupancy for first ion, spin component:           1
  2.868  -0.000   0.000  -0.000   0.000  -1.665   0.000  -0.000   0.000  -0.000  -0.000  -0.000  -0.000   0.000   0.000   0.000
 -0.000   2.868   0.000   0.000   0.000   0.000  -1.665  -0.000  -0.000   0.000  -0.000  -0.000   0.000   0.000   0.000   0.000
 -0.000   0.000   3.407   0.000   0.000   0.000  -0.000  -1.777   0.000  -0.000   0.000   0.000   0.000  -0.000   0.000  -0.000
  0.000   0.000   0.000   2.868  -0.000  -0.000  -0.000  -0.000  -1.665   0.000  -0.000   0.000  -0.000   0.000   0.000   0.000
  0.000   0.000   0.000  -0.000   3.407   0.000  -0.000  -0.000   0.000  -1.777   0.000   0.000  -0.000   0.000  -0.000   0.000
 -1.665   0.000   0.000  -0.000  -0.000   2.207  -0.000   0.000   0.000  -0.000  -0.000   0.000   0.000   0.000  -0.000  -0.000
  0.000  -1.665  -0.000  -0.000   0.000  -0.000   2.207  -0.000   0.000   0.000  -0.000  -0.000  -0.000   0.000  -0.000  -0.000
  0.000  -0.000  -1.777  -0.000  -0.000   0.000  -0.000   2.006  -0.000   0.000   0.000   0.000  -0.000   0.000  -0.000  -0.000
  0.000   0.000   0.000  -1.665   0.000  -0.000  -0.000   0.000   2.207  -0.000   0.000  -0.000  -0.000   0.000  -0.000  -0.000
  0.000   0.000  -0.000   0.000  -1.777   0.000   0.000   0.000  -0.000   2.006  -0.000   0.000   0.000   0.000   0.000  -0.000
 -0.000  -0.000   0.000  -0.000   0.000  -0.000  -0.000  -0.000  -0.000  -0.000   2.037  -0.320   0.000   0.000   0.000   0.000
 -0.000  -0.000  -0.000   0.000   0.000  -0.000  -0.000  -0.000  -0.000   0.000  -0.320   0.053   0.000  -0.000   0.000   0.000
 -0.000   0.000   0.000  -0.000   0.000   0.000  -0.000   0.000  -0.000   0.000   0.000   0.000   0.237   0.000  -0.000  -0.014
  0.000   0.000  -0.000   0.000  -0.000   0.000   0.000   0.000   0.000   0.000   0.000  -0.000  -0.000   0.237   0.000  -0.000
  0.000   0.000  -0.000   0.000  -0.000  -0.000  -0.000   0.000  -0.000  -0.000   0.000   0.000   0.000  -0.000   0.237  -0.000
  0.000   0.000   0.000  -0.000   0.000  -0.000  -0.000  -0.000  -0.000   0.000   0.000   0.000  -0.014  -0.000  -0.000   0.001
 -0.000  -0.000   0.000  -0.000  -0.000   0.000   0.000   0.000  -0.000   0.000   0.000  -0.000  -0.000  -0.014  -0.000   0.000
  0.000  -0.000   0.000  -0.000   0.000   0.000   0.000  -0.000  -0.000  -0.000   0.000   0.000  -0.000   0.000  -0.014  -0.000


------------------------ aborting loop because EDIFF is reached ----------------------------------------


 


 total charge     
 
# of ion     s       p       d       tot
----------------------------------------
  1        0.475   0.448   8.466   9.388
  2        0.475   0.448   8.466   9.388
  3        0.475   0.448   8.466   9.388
  4        0.475   0.448   8.466   9.388
------------------------------------------------
tot        1.900   1.790  33.864  37.554
 
    CHARGE:  cpu time    0.16: real time    0.16
    FORLOC:  cpu time    0.00: real time    0.00
    FORNL :  cpu time    0.65: real time    0.66
    STRESS:  cpu time    1.95: real time    1.97
    FORCOR:  cpu time    0.02: real time    0.02
    FORHAR:  cpu time    0.01: real time    0.01
    MIXING:  cpu time    0.00: real time    0.00
    OFIELD:  cpu time    0.00: real time    0.00

  DFT-D2 method for vdW energy calculation
  -------------------------------------------------------------------

  Parameters of vdW forcefield:
         C6(Jnm^6/mol)     R0(A)
   -----------------------------
   Pd       5.510          1.690

  IVDW =   1
  VDW_RADIUS =    40.000 A
  VDW_S6 =     0.750
  VDW_SR =     1.000
  VDW_D =    20.000
  LVDW_EWALD = F

  Number of pair interactions contributing to vdW energy:   44344
  Edisp (eV):   -0.51420
    FORVDW:  cpu time    0.01: real time    0.01

  FORCE on cell =-STRESS in cart. coord.  units (eV):
  Direction    XX          YY          ZZ          XY          YZ          ZX
  --------------------------------------------------------------------------------------
  Alpha Z   172.17182   172.17182   172.17182
  Ewald   -1120.75617 -1120.75617 -1120.75617    -0.00000     0.00000    -0.00000
  Hartree   154.71296   154.71296   154.71296    -0.00000    -0.00000    -0.00000
  E(xc)    -209.94314  -209.94314  -209.94314    -0.00000     0.00000    -0.00000
  Local     176.11400   176.11400   176.11400    -0.00000     0.00000    -0.00000
  n-local   -11.29939   -20.45263    -9.46498     9.61760     5.86669     5.11006
  augment   296.81207   296.81207   296.81207    -0.00000     0.00000    -0.00000
  Kinetic   552.12624   541.63803   541.25826     4.57277    -0.79994     1.08939
  Fock        0.00000     0.00000     0.00000     0.00000     0.00000     0.00000
  vdW        -0.66111    -0.66111    -0.66111    -0.00000    -0.00000     0.00000
  -------------------------------------------------------------------------------------
  Total      -0.28106    -0.28106    -0.28106    -0.00000    -0.00000     0.00000
  in kB      -7.43487    -7.43487    -7.43487    -0.00000    -0.00000     0.00000
  external pressure =       -7.43 kB  Pullay stress =        0.00 kB


 VOLUME and BASIS-vectors are now :
 -----------------------------------------------------------------------------
  energy-cutoff  :      700.00
  volume of cell :       60.57
      direct lattice vectors                 reciprocal lattice vectors
     3.927174036  0.000000000  0.000000000     0.254636029  0.000000000  0.000000000
     0.000000000  3.927174036  0.000000000     0.000000000  0.254636029  0.000000000
     0.000000000  0.000000000  3.927174036     0.000000000  0.000000000  0.254636029

  length of vectors
     3.927174036  3.927174036  3.927174036     0.254636029  0.254636029  0.254636029


 FORCES acting on ions
    electron-ion (+dipol)            ewald-force                    non-local-force                 convergence-correction
 -----------------------------------------------------------------------------------------------
   -.758E-14 0.296E-14 -.774E-13   0.166E-14 -.857E-14 -.845E-14   0.496E-23 -.414E-23 0.993E-23   0.301E-14 -.118E-13 0.357E-14
   -.757E-14 0.304E-12 0.225E-12   0.119E-14 0.668E-14 0.361E-14   -.414E-23 -.414E-23 -.331E-23   0.534E-14 -.399E-13 -.466E-13
   0.295E-12 0.157E-15 0.475E-11   -.280E-14 -.788E-14 0.362E-14   -.993E-23 -.414E-23 -.331E-23   -.112E-13 -.200E-13 -.551E-13
   0.297E-12 0.227E-11 0.142E-11   -.327E-14 0.738E-14 -.894E-16   -.108E-22 -.372E-23 -.331E-23   -.158E-13 -.396E-13 0.363E-14
 -----------------------------------------------------------------------------------------------
   0.577E-12 0.258E-11 0.632E-11   -.322E-14 -.239E-14 -.131E-14   -.199E-22 -.161E-22 0.000E+00   -.187E-13 -.111E-12 -.945E-13
 
 
 POSITION                                       TOTAL-FORCE (eV/Angst)
 -----------------------------------------------------------------------------------
      0.00000      0.00000      0.00000        -0.000000      0.000000     -0.000000
      0.00000      1.96359      1.96359         0.000000     -0.000000     -0.000000
      1.96359      0.00000      1.96359         0.000000     -0.000000      0.000000
      1.96359      1.96359      0.00000        -0.000000      0.000000     -0.000000
 -----------------------------------------------------------------------------------
    total drift:                                0.000000      0.000000      0.000000


--------------------------------------------------------------------------------------------------------



  FREE ENERGIE OF THE ION-ELECTRON SYSTEM (eV)
  ---------------------------------------------------
  free  energy   TOTEN  =       -21.37690228 eV

  energy  without entropy=      -21.37472406  energy(sigma->0) =      -21.37617621
 


--------------------------------------------------------------------------------------------------------


    POTLOK:  cpu time    0.03: real time    0.03


--------------------------------------------------------------------------------------------------------




--------------------------------------------------------------------------------------------------------


 writing wavefunctions
     LOOP+:  cpu time   24.43: real time   26.05
    4ORBIT:  cpu time    0.00: real time    0.00
 


 total charge     
 
# of ion     s       p       d       tot
----------------------------------------
  1        0.475   0.448   8.466   9.388
  2        0.475   0.448   8.466   9.388
  3        0.475   0.448   8.466   9.388
  4        0.475   0.448   8.466   9.388
------------------------------------------------
tot        1.900   1.790  33.864  37.554
 

 total amount of memory used by VASP on root node    37263. kBytes
========================================================================

   base      :      30000. kBytes
   nonlr-proj:        759. kBytes
   fftplans  :        658. kBytes
   grid      :        929. kBytes
   one-center:         15. kBytes
   wavefun   :       4902. kBytes
 
  
  
 General timing and accounting informations for this job:
 ========================================================
  
                  Total CPU time used (sec):       26.839
                            User time (sec):       26.389
                          System time (sec):        0.450
                         Elapsed time (sec):       28.835
  
                   Maximum memory used (kb):       44724.
                   Average memory used (kb):           0.
  
                          Minor page faults:        23228
                          Major page faults:            6
                 Voluntary context switches:         1084
