 vasp.5.3.5 31Mar14 (build Apr 25 2014 16:28:52) complex                        
  
 executed on             LinuxIFC date 2019.02.08  10:55:27
 running on   12 total cores
 distrk:  each k-point on   12 cores,    1 groups
 distr:  one band on NCORES_PER_BAND=   6 cores,    2 groups


--------------------------------------------------------------------------------------------------------


 INCAR:
 POTCAR:    PAW_PBE Ru 04Feb2005                  
 POTCAR:    PAW_PBE Ru 04Feb2005                  
   VRHFIN =Ru: s1 d7                                                            
   LEXCH  = PE                                                                  
   EATOM  =   454.8837 eV,   33.4330 Ry                                         
                                                                                
   TITEL  = PAW_PBE Ru 04Feb2005                                                
   LULTRA =        F    use ultrasoft PP ?                                      
   IUNSCR =        1    unscreen: 0-lin 1-nonlin 2-no                           
   RPACOR =    2.170    partial core radius                                     
   POMASS =  101.070; ZVAL   =    8.000    mass and valenz                      
   RCORE  =    2.700    outmost cutoff radius                                   
   RWIGS  =    2.650; RWIGS  =    1.402    wigner-seitz radius (au A)           
   ENMAX  =  213.271; ENMIN  =  159.953 eV                                      
   ICORE  =        3    local potential                                         
   LCOR   =        T    correct aug charges                                     
   LPAW   =        T    paw PP                                                  
   EAUG   =  333.494                                                            
   DEXC   =    0.000                                                            
   RMAX   =    2.758    core radius for proj-oper                               
   RAUG   =    1.300    factor for augmentation sphere                          
   RDEP   =    2.865    radius for radial grids                                 
   RDEPT  =    2.250    core radius for aug-charge                              
                                                                                
   Atomic configuration                                                         
   12 entries                                                                   
     n  l   j            E        occ.                                          
     1  0  0.50    -21933.2693   2.0000                                         
     2  0  0.50     -3153.4097   2.0000                                         
     2  1  1.50     -2823.9548   6.0000                                         
     3  0  0.50      -555.3323   2.0000                                         
     3  1  1.50      -447.1024   6.0000                                         
     3  2  2.50      -273.0570  10.0000                                         
     4  0  0.50       -76.3589   2.0000                                         
     4  1  1.50       -46.4050   6.0000                                         
     4  2  2.50        -5.2029   7.0000                                         
     5  0  0.50        -4.2392   1.0000                                         
     5  1  0.50        -1.3606   0.0000                                         
     4  3  2.50        -1.3606   0.0000                                         
   Description                                                                  
     l       E           TYP  RCUT    TYP  RCUT                                 
     2     -5.2028939     23  2.600                                             
     2     -6.5634765     23  2.600                                             
     0     -4.2392259     23  2.700                                             
     0     27.2116520     23  2.700                                             
     1     -4.0817478     23  2.700                                             
     1     27.2116520     23  2.700                                             
     3     -5.4423304     23  2.600                                             
  local pseudopotential read in
  partial core-charges read in
  partial kinetic energy density read in
  atomic valenz-charges read in
  non local Contribution for L=           2  read in
    real space projection operators read in
  non local Contribution for L=           2  read in
    real space projection operators read in
  non local Contribution for L=           0  read in
    real space projection operators read in
  non local Contribution for L=           0  read in
    real space projection operators read in
  non local Contribution for L=           1  read in
    real space projection operators read in
  non local Contribution for L=           1  read in
    real space projection operators read in
    PAW grid and wavefunctions read in
 
   number of l-projection  operators is LMAX  =           6
   number of lm-projection operators is LMMAX =          18
 

 ----------------------------------------------------------------------------- 
|                                                                             |
|  ADVICE TO THIS USER RUNNING 'VASP/VAMP'   (HEAR YOUR MASTER'S VOICE ...):  |
|                                                                             |
|      You have a (more or less) 'small supercell' and for smaller cells      |
|      it is recommended  to use the reciprocal-space projection scheme!      |
|      The real space optimization is not  efficient for small cells and it   |
|      is also less accurate ...                                              |
|      Therefore set LREAL=.FALSE. in the  INCAR file                         |
|                                                                             |
 ----------------------------------------------------------------------------- 

 Optimization of the real space projectors (new method)

 maximal supplied QI-value         = 13.98
 optimisation between [QCUT,QGAM] = [ 10.21, 20.42] = [ 29.18,116.73] Ry 
 Optimized for a Real-space Cutoff    1.51 Angstroem

   l    n(q)    QCUT    max X(q) W(low)/X(q) W(high)/X(q)  e(spline) 
   2      8    10.208    61.733    0.32E-03    0.51E-03    0.21E-06
   2      8    10.208    59.886    0.33E-03    0.53E-03    0.22E-06
   0      9    10.208    23.358    0.41E-03    0.22E-03    0.14E-06
   0      9    10.208    11.320    0.34E-03    0.18E-03    0.11E-06
   1      9    10.208    14.765    0.25E-03    0.44E-03    0.23E-06
   1      9    10.208     8.283    0.19E-03    0.33E-03    0.18E-06
  PAW_PBE Ru 04Feb2005                  :
 energy of atom  1       EATOM= -454.8837
 kinetic energy error for atom=    0.0033 (will be added to EATOM!!)
 
 
 POSCAR: Ru                                      
  positions in direct lattice
  velocities in cartesian coordinates
 exchange correlation table for  LEXCH =        8
   RHO(1)=    0.500       N(1)  =     2000
   RHO(2)=  100.500       N(2)  =     4000
 


--------------------------------------------------------------------------------------------------------


 ion  position               nearest neighbor table
   1  0.333  0.667  0.250-   2 2.65   2 2.65   2 2.65   2 2.65   2 2.65   2 2.65
   2  0.667  0.333  0.750-   1 2.65   1 2.65   1 2.65   1 2.65   1 2.65   1 2.65
 
  LATTYP: Found a hexagonal cell.
 ALAT       =     2.7058000565
 C/A-ratio  =     1.5823785605
  
  Lattice vectors:
  
 A1 = (   2.7058000565,   0.0000000000,   0.0000000000)
 A2 = (  -1.3529000282,   2.3432915865,   0.0000000000)
 A3 = (   0.0000000000,   0.0000000000,   4.2815999985)


Analysis of symmetry for initial positions (statically):
=====================================================================
 Subroutine PRICEL returns:
 Original cell was already a primitive cell.
 

 Routine SETGRP: Setting up the symmetry group for a 
 hexagonal supercell.


 Subroutine GETGRP returns: Found 24 space group operations
 (whereof 12 operations were pure point group operations)
 out of a pool of 24 trial point group operations.


The static configuration has the point symmetry D_3d.
 The point group associated with its full space group is D_6h.


Analysis of symmetry for dynamics (positions and initial velocities):
=====================================================================
 Subroutine PRICEL returns:
 Original cell was already a primitive cell.
 

 Routine SETGRP: Setting up the symmetry group for a 
 hexagonal supercell.


 Subroutine GETGRP returns: Found 24 space group operations
 (whereof 12 operations were pure point group operations)
 out of a pool of 24 trial point group operations.


The dynamic configuration has the point symmetry D_3d.
 The point group associated with its full space group is D_6h.


Analysis of constrained symmetry for selective dynamics:
=====================================================================
 Subroutine PRICEL returns:
 Original cell was already a primitive cell.
 

 Routine SETGRP: Setting up the symmetry group for a 
 hexagonal supercell.


 Subroutine GETGRP returns: Found 24 space group operations
 (whereof 12 operations were pure point group operations)
 out of a pool of 24 trial point group operations.


The constrained configuration has the point symmetry D_3d.
 The point group associated with its full space group is D_6h.
 
 
 KPOINTS: K-points                                

Automatic generation of k-mesh.
Space group operators:
 irot       det(A)        alpha          n_x          n_y          n_z        tau_x        tau_y        tau_z
    1     1.000000     0.000001     1.000000     0.000000     0.000000     0.000000     0.000000     0.000000
    2    -1.000000     0.000001     1.000000     0.000000     0.000000     0.000000     0.000000     0.000000
    3     1.000000   120.000000     0.000000     0.000000    -1.000000     0.000000     0.000000     0.000000
    4    -1.000000   120.000000     0.000000     0.000000    -1.000000     0.000000     0.000000     0.000000
    5     1.000000   120.000000     0.000000     0.000000     1.000000     0.000000     0.000000     0.000000
    6    -1.000000   120.000000     0.000000     0.000000     1.000000     0.000000     0.000000     0.000000
    7     1.000000   180.000000     1.000000    -0.000000     0.000000     0.000000     0.000000     0.000000
    8    -1.000000   180.000000     1.000000    -0.000000     0.000000     0.000000     0.000000     0.000000
    9     1.000000   180.000000     0.500000    -0.866025     0.000000     0.000000     0.000000     0.000000
   10    -1.000000   180.000000     0.500000    -0.866025     0.000000     0.000000     0.000000     0.000000
   11     1.000000   180.000000    -0.500000    -0.866025     0.000000     0.000000     0.000000     0.000000
   12    -1.000000   180.000000    -0.500000    -0.866025     0.000000     0.000000     0.000000     0.000000
   13     1.000000    60.000000     0.000000     0.000000    -1.000000     0.000000     0.000000     0.500000
   14    -1.000000    60.000000     0.000000     0.000000    -1.000000     0.000000     0.000000     0.500000
   15     1.000000   180.000000     0.000000     0.000000     1.000000     0.000000     0.000000     0.500000
   16    -1.000000   180.000000     0.000000     0.000000     1.000000     0.000000     0.000000     0.500000
   17     1.000000    60.000000     0.000000     0.000000     1.000000     0.000000     0.000000     0.500000
   18    -1.000000    60.000000     0.000000     0.000000     1.000000     0.000000     0.000000     0.500000
   19     1.000000   180.000000     0.866025    -0.500000     0.000000     0.000000     0.000000     0.500000
   20    -1.000000   180.000000     0.866025    -0.500000     0.000000     0.000000     0.000000     0.500000
   21     1.000000   180.000000     0.000000     1.000000     0.000000     0.000000     0.000000     0.500000
   22    -1.000000   180.000000     0.000000     1.000000     0.000000     0.000000     0.000000     0.500000
   23     1.000000   180.000000     0.866025     0.500000     0.000000     0.000000     0.000000     0.500000
   24    -1.000000   180.000000     0.866025     0.500000     0.000000     0.000000     0.000000     0.500000
 
 Subroutine IBZKPT returns following result:
 ===========================================
 
 Found    216 irreducible k-points:
 
 Following reciprocal coordinates:
            Coordinates               Weight
  0.000000  0.000000  0.000000      1.000000
  0.066667 -0.000000  0.000000      6.000000
  0.133333 -0.000000  0.000000      6.000000
  0.200000 -0.000000  0.000000      6.000000
  0.266667 -0.000000  0.000000      6.000000
  0.333333  0.000000  0.000000      6.000000
  0.400000 -0.000000  0.000000      6.000000
  0.466667 -0.000000  0.000000      6.000000
  0.066667  0.066667  0.000000      6.000000
  0.133333  0.066667  0.000000     12.000000
  0.200000  0.066667  0.000000     12.000000
  0.266667  0.066667  0.000000     12.000000
  0.333333  0.066667  0.000000     12.000000
  0.400000  0.066667  0.000000     12.000000
  0.466667  0.066667  0.000000      6.000000
  0.133333  0.133333  0.000000      6.000000
  0.200000  0.133333  0.000000     12.000000
  0.266667  0.133333  0.000000     12.000000
  0.333333  0.133333  0.000000     12.000000
  0.400000  0.133333  0.000000     12.000000
  0.200000  0.200000  0.000000      6.000000
  0.266667  0.200000  0.000000     12.000000
  0.333333  0.200000  0.000000     12.000000
  0.400000  0.200000  0.000000      6.000000
  0.266667  0.266667  0.000000      6.000000
  0.333333  0.266667  0.000000     12.000000
  0.333333  0.333333  0.000000      2.000000
  0.000000  0.000000  0.066667      2.000000
  0.066667 -0.000000  0.066667     12.000000
  0.133333 -0.000000  0.066667     12.000000
  0.200000 -0.000000  0.066667     12.000000
  0.266667 -0.000000  0.066667     12.000000
  0.333333  0.000000  0.066667     12.000000
  0.400000 -0.000000  0.066667     12.000000
  0.466667 -0.000000  0.066667     12.000000
  0.066667  0.066667  0.066667     12.000000
  0.133333  0.066667  0.066667     24.000000
  0.200000  0.066667  0.066667     24.000000
  0.266667  0.066667  0.066667     24.000000
  0.333333  0.066667  0.066667     24.000000
  0.400000  0.066667  0.066667     24.000000
  0.466667  0.066667  0.066667     12.000000
  0.133333  0.133333  0.066667     12.000000
  0.200000  0.133333  0.066667     24.000000
  0.266667  0.133333  0.066667     24.000000
  0.333333  0.133333  0.066667     24.000000
  0.400000  0.133333  0.066667     24.000000
  0.200000  0.200000  0.066667     12.000000
  0.266667  0.200000  0.066667     24.000000
  0.333333  0.200000  0.066667     24.000000
  0.400000  0.200000  0.066667     12.000000
  0.266667  0.266667  0.066667     12.000000
  0.333333  0.266667  0.066667     24.000000
  0.333333  0.333333  0.066667      4.000000
  0.000000  0.000000  0.133333      2.000000
  0.066667 -0.000000  0.133333     12.000000
  0.133333 -0.000000  0.133333     12.000000
  0.200000 -0.000000  0.133333     12.000000
  0.266667 -0.000000  0.133333     12.000000
  0.333333  0.000000  0.133333     12.000000
  0.400000 -0.000000  0.133333     12.000000
  0.466667 -0.000000  0.133333     12.000000
  0.066667  0.066667  0.133333     12.000000
  0.133333  0.066667  0.133333     24.000000
  0.200000  0.066667  0.133333     24.000000
  0.266667  0.066667  0.133333     24.000000
  0.333333  0.066667  0.133333     24.000000
  0.400000  0.066667  0.133333     24.000000
  0.466667  0.066667  0.133333     12.000000
  0.133333  0.133333  0.133333     12.000000
  0.200000  0.133333  0.133333     24.000000
  0.266667  0.133333  0.133333     24.000000
  0.333333  0.133333  0.133333     24.000000
  0.400000  0.133333  0.133333     24.000000
  0.200000  0.200000  0.133333     12.000000
  0.266667  0.200000  0.133333     24.000000
  0.333333  0.200000  0.133333     24.000000
  0.400000  0.200000  0.133333     12.000000
  0.266667  0.266667  0.133333     12.000000
  0.333333  0.266667  0.133333     24.000000
  0.333333  0.333333  0.133333      4.000000
  0.000000  0.000000  0.200000      2.000000
  0.066667 -0.000000  0.200000     12.000000
  0.133333 -0.000000  0.200000     12.000000
  0.200000 -0.000000  0.200000     12.000000
  0.266667 -0.000000  0.200000     12.000000
  0.333333  0.000000  0.200000     12.000000
  0.400000 -0.000000  0.200000     12.000000
  0.466667 -0.000000  0.200000     12.000000
  0.066667  0.066667  0.200000     12.000000
  0.133333  0.066667  0.200000     24.000000
  0.200000  0.066667  0.200000     24.000000
  0.266667  0.066667  0.200000     24.000000
  0.333333  0.066667  0.200000     24.000000
  0.400000  0.066667  0.200000     24.000000
  0.466667  0.066667  0.200000     12.000000
  0.133333  0.133333  0.200000     12.000000
  0.200000  0.133333  0.200000     24.000000
  0.266667  0.133333  0.200000     24.000000
  0.333333  0.133333  0.200000     24.000000
  0.400000  0.133333  0.200000     24.000000
  0.200000  0.200000  0.200000     12.000000
  0.266667  0.200000  0.200000     24.000000
  0.333333  0.200000  0.200000     24.000000
  0.400000  0.200000  0.200000     12.000000
  0.266667  0.266667  0.200000     12.000000
  0.333333  0.266667  0.200000     24.000000
  0.333333  0.333333  0.200000      4.000000
  0.000000  0.000000  0.266667      2.000000
  0.066667 -0.000000  0.266667     12.000000
  0.133333 -0.000000  0.266667     12.000000
  0.200000 -0.000000  0.266667     12.000000
  0.266667 -0.000000  0.266667     12.000000
  0.333333  0.000000  0.266667     12.000000
  0.400000 -0.000000  0.266667     12.000000
  0.466667 -0.000000  0.266667     12.000000
  0.066667  0.066667  0.266667     12.000000
  0.133333  0.066667  0.266667     24.000000
  0.200000  0.066667  0.266667     24.000000
  0.266667  0.066667  0.266667     24.000000
  0.333333  0.066667  0.266667     24.000000
  0.400000  0.066667  0.266667     24.000000
  0.466667  0.066667  0.266667     12.000000
  0.133333  0.133333  0.266667     12.000000
  0.200000  0.133333  0.266667     24.000000
  0.266667  0.133333  0.266667     24.000000
  0.333333  0.133333  0.266667     24.000000
  0.400000  0.133333  0.266667     24.000000
  0.200000  0.200000  0.266667     12.000000
  0.266667  0.200000  0.266667     24.000000
  0.333333  0.200000  0.266667     24.000000
  0.400000  0.200000  0.266667     12.000000
  0.266667  0.266667  0.266667     12.000000
  0.333333  0.266667  0.266667     24.000000
  0.333333  0.333333  0.266667      4.000000
  0.000000  0.000000  0.333333      2.000000
  0.066667 -0.000000  0.333333     12.000000
  0.133333 -0.000000  0.333333     12.000000
  0.200000 -0.000000  0.333333     12.000000
  0.266667 -0.000000  0.333333     12.000000
  0.333333  0.000000  0.333333     12.000000
  0.400000 -0.000000  0.333333     12.000000
  0.466667 -0.000000  0.333333     12.000000
  0.066667  0.066667  0.333333     12.000000
  0.133333  0.066667  0.333333     24.000000
  0.200000  0.066667  0.333333     24.000000
  0.266667  0.066667  0.333333     24.000000
  0.333333  0.066667  0.333333     24.000000
  0.400000  0.066667  0.333333     24.000000
  0.466667  0.066667  0.333333     12.000000
  0.133333  0.133333  0.333333     12.000000
  0.200000  0.133333  0.333333     24.000000
  0.266667  0.133333  0.333333     24.000000
  0.333333  0.133333  0.333333     24.000000
  0.400000  0.133333  0.333333     24.000000
  0.200000  0.200000  0.333333     12.000000
  0.266667  0.200000  0.333333     24.000000
  0.333333  0.200000  0.333333     24.000000
  0.400000  0.200000  0.333333     12.000000
  0.266667  0.266667  0.333333     12.000000
  0.333333  0.266667  0.333333     24.000000
  0.333333  0.333333  0.333333      4.000000
  0.000000  0.000000  0.400000      2.000000
  0.066667 -0.000000  0.400000     12.000000
  0.133333 -0.000000  0.400000     12.000000
  0.200000 -0.000000  0.400000     12.000000
  0.266667 -0.000000  0.400000     12.000000
  0.333333  0.000000  0.400000     12.000000
  0.400000 -0.000000  0.400000     12.000000
  0.466667 -0.000000  0.400000     12.000000
  0.066667  0.066667  0.400000     12.000000
  0.133333  0.066667  0.400000     24.000000
  0.200000  0.066667  0.400000     24.000000
  0.266667  0.066667  0.400000     24.000000
  0.333333  0.066667  0.400000     24.000000
  0.400000  0.066667  0.400000     24.000000
  0.466667  0.066667  0.400000     12.000000
  0.133333  0.133333  0.400000     12.000000
  0.200000  0.133333  0.400000     24.000000
  0.266667  0.133333  0.400000     24.000000
  0.333333  0.133333  0.400000     24.000000
  0.400000  0.133333  0.400000     24.000000
  0.200000  0.200000  0.400000     12.000000
  0.266667  0.200000  0.400000     24.000000
  0.333333  0.200000  0.400000     24.000000
  0.400000  0.200000  0.400000     12.000000
  0.266667  0.266667  0.400000     12.000000
  0.333333  0.266667  0.400000     24.000000
  0.333333  0.333333  0.400000      4.000000
  0.000000  0.000000  0.466667      2.000000
  0.066667 -0.000000  0.466667     12.000000
  0.133333 -0.000000  0.466667     12.000000
  0.200000 -0.000000  0.466667     12.000000
  0.266667 -0.000000  0.466667     12.000000
  0.333333  0.000000  0.466667     12.000000
  0.400000 -0.000000  0.466667     12.000000
  0.466667 -0.000000  0.466667     12.000000
  0.066667  0.066667  0.466667     12.000000
  0.133333  0.066667  0.466667     24.000000
  0.200000  0.066667  0.466667     24.000000
  0.266667  0.066667  0.466667     24.000000
  0.333333  0.066667  0.466667     24.000000
  0.400000  0.066667  0.466667     24.000000
  0.466667  0.066667  0.466667     12.000000
  0.133333  0.133333  0.466667     12.000000
  0.200000  0.133333  0.466667     24.000000
  0.266667  0.133333  0.466667     24.000000
  0.333333  0.133333  0.466667     24.000000
  0.400000  0.133333  0.466667     24.000000
  0.200000  0.200000  0.466667     12.000000
  0.266667  0.200000  0.466667     24.000000
  0.333333  0.200000  0.466667     24.000000
  0.400000  0.200000  0.466667     12.000000
  0.266667  0.266667  0.466667     12.000000
  0.333333  0.266667  0.466667     24.000000
  0.333333  0.333333  0.466667      4.000000
 
 Following cartesian coordinates:
            Coordinates               Weight
  0.000000  0.000000  0.000000      1.000000
  0.024638  0.014225  0.000000      6.000000
  0.049277  0.028450  0.000000      6.000000
  0.073915  0.042675  0.000000      6.000000
  0.098554  0.056900  0.000000      6.000000
  0.123192  0.071125  0.000000      6.000000
  0.147831  0.085350  0.000000      6.000000
  0.172469  0.099575  0.000000      6.000000
  0.024638  0.042675  0.000000      6.000000
  0.049277  0.056900  0.000000     12.000000
  0.073915  0.071125  0.000000     12.000000
  0.098554  0.085350  0.000000     12.000000
  0.123192  0.099575  0.000000     12.000000
  0.147831  0.113800  0.000000     12.000000
  0.172469  0.128025  0.000000      6.000000
  0.049277  0.085350  0.000000      6.000000
  0.073915  0.099575  0.000000     12.000000
  0.098554  0.113800  0.000000     12.000000
  0.123192  0.128025  0.000000     12.000000
  0.147831  0.142250  0.000000     12.000000
  0.073915  0.128025  0.000000      6.000000
  0.098554  0.142250  0.000000     12.000000
  0.123192  0.156475  0.000000     12.000000
  0.147831  0.170700  0.000000      6.000000
  0.098554  0.170700  0.000000      6.000000
  0.123192  0.184925  0.000000     12.000000
  0.123192  0.213375  0.000000      2.000000
  0.000000  0.000000  0.015571      2.000000
  0.024638  0.014225  0.015571     12.000000
  0.049277  0.028450  0.015571     12.000000
  0.073915  0.042675  0.015571     12.000000
  0.098554  0.056900  0.015571     12.000000
  0.123192  0.071125  0.015571     12.000000
  0.147831  0.085350  0.015571     12.000000
  0.172469  0.099575  0.015571     12.000000
  0.024638  0.042675  0.015571     12.000000
  0.049277  0.056900  0.015571     24.000000
  0.073915  0.071125  0.015571     24.000000
  0.098554  0.085350  0.015571     24.000000
  0.123192  0.099575  0.015571     24.000000
  0.147831  0.113800  0.015571     24.000000
  0.172469  0.128025  0.015571     12.000000
  0.049277  0.085350  0.015571     12.000000
  0.073915  0.099575  0.015571     24.000000
  0.098554  0.113800  0.015571     24.000000
  0.123192  0.128025  0.015571     24.000000
  0.147831  0.142250  0.015571     24.000000
  0.073915  0.128025  0.015571     12.000000
  0.098554  0.142250  0.015571     24.000000
  0.123192  0.156475  0.015571     24.000000
  0.147831  0.170700  0.015571     12.000000
  0.098554  0.170700  0.015571     12.000000
  0.123192  0.184925  0.015571     24.000000
  0.123192  0.213375  0.015571      4.000000
  0.000000  0.000000  0.031141      2.000000
  0.024638  0.014225  0.031141     12.000000
  0.049277  0.028450  0.031141     12.000000
  0.073915  0.042675  0.031141     12.000000
  0.098554  0.056900  0.031141     12.000000
  0.123192  0.071125  0.031141     12.000000
  0.147831  0.085350  0.031141     12.000000
  0.172469  0.099575  0.031141     12.000000
  0.024638  0.042675  0.031141     12.000000
  0.049277  0.056900  0.031141     24.000000
  0.073915  0.071125  0.031141     24.000000
  0.098554  0.085350  0.031141     24.000000
  0.123192  0.099575  0.031141     24.000000
  0.147831  0.113800  0.031141     24.000000
  0.172469  0.128025  0.031141     12.000000
  0.049277  0.085350  0.031141     12.000000
  0.073915  0.099575  0.031141     24.000000
  0.098554  0.113800  0.031141     24.000000
  0.123192  0.128025  0.031141     24.000000
  0.147831  0.142250  0.031141     24.000000
  0.073915  0.128025  0.031141     12.000000
  0.098554  0.142250  0.031141     24.000000
  0.123192  0.156475  0.031141     24.000000
  0.147831  0.170700  0.031141     12.000000
  0.098554  0.170700  0.031141     12.000000
  0.123192  0.184925  0.031141     24.000000
  0.123192  0.213375  0.031141      4.000000
  0.000000  0.000000  0.046712      2.000000
  0.024638  0.014225  0.046712     12.000000
  0.049277  0.028450  0.046712     12.000000
  0.073915  0.042675  0.046712     12.000000
  0.098554  0.056900  0.046712     12.000000
  0.123192  0.071125  0.046712     12.000000
  0.147831  0.085350  0.046712     12.000000
  0.172469  0.099575  0.046712     12.000000
  0.024638  0.042675  0.046712     12.000000
  0.049277  0.056900  0.046712     24.000000
  0.073915  0.071125  0.046712     24.000000
  0.098554  0.085350  0.046712     24.000000
  0.123192  0.099575  0.046712     24.000000
  0.147831  0.113800  0.046712     24.000000
  0.172469  0.128025  0.046712     12.000000
  0.049277  0.085350  0.046712     12.000000
  0.073915  0.099575  0.046712     24.000000
  0.098554  0.113800  0.046712     24.000000
  0.123192  0.128025  0.046712     24.000000
  0.147831  0.142250  0.046712     24.000000
  0.073915  0.128025  0.046712     12.000000
  0.098554  0.142250  0.046712     24.000000
  0.123192  0.156475  0.046712     24.000000
  0.147831  0.170700  0.046712     12.000000
  0.098554  0.170700  0.046712     12.000000
  0.123192  0.184925  0.046712     24.000000
  0.123192  0.213375  0.046712      4.000000
  0.000000  0.000000  0.062282      2.000000
  0.024638  0.014225  0.062282     12.000000
  0.049277  0.028450  0.062282     12.000000
  0.073915  0.042675  0.062282     12.000000
  0.098554  0.056900  0.062282     12.000000
  0.123192  0.071125  0.062282     12.000000
  0.147831  0.085350  0.062282     12.000000
  0.172469  0.099575  0.062282     12.000000
  0.024638  0.042675  0.062282     12.000000
  0.049277  0.056900  0.062282     24.000000
  0.073915  0.071125  0.062282     24.000000
  0.098554  0.085350  0.062282     24.000000
  0.123192  0.099575  0.062282     24.000000
  0.147831  0.113800  0.062282     24.000000
  0.172469  0.128025  0.062282     12.000000
  0.049277  0.085350  0.062282     12.000000
  0.073915  0.099575  0.062282     24.000000
  0.098554  0.113800  0.062282     24.000000
  0.123192  0.128025  0.062282     24.000000
  0.147831  0.142250  0.062282     24.000000
  0.073915  0.128025  0.062282     12.000000
  0.098554  0.142250  0.062282     24.000000
  0.123192  0.156475  0.062282     24.000000
  0.147831  0.170700  0.062282     12.000000
  0.098554  0.170700  0.062282     12.000000
  0.123192  0.184925  0.062282     24.000000
  0.123192  0.213375  0.062282      4.000000
  0.000000  0.000000  0.077853      2.000000
  0.024638  0.014225  0.077853     12.000000
  0.049277  0.028450  0.077853     12.000000
  0.073915  0.042675  0.077853     12.000000
  0.098554  0.056900  0.077853     12.000000
  0.123192  0.071125  0.077853     12.000000
  0.147831  0.085350  0.077853     12.000000
  0.172469  0.099575  0.077853     12.000000
  0.024638  0.042675  0.077853     12.000000
  0.049277  0.056900  0.077853     24.000000
  0.073915  0.071125  0.077853     24.000000
  0.098554  0.085350  0.077853     24.000000
  0.123192  0.099575  0.077853     24.000000
  0.147831  0.113800  0.077853     24.000000
  0.172469  0.128025  0.077853     12.000000
  0.049277  0.085350  0.077853     12.000000
  0.073915  0.099575  0.077853     24.000000
  0.098554  0.113800  0.077853     24.000000
  0.123192  0.128025  0.077853     24.000000
  0.147831  0.142250  0.077853     24.000000
  0.073915  0.128025  0.077853     12.000000
  0.098554  0.142250  0.077853     24.000000
  0.123192  0.156475  0.077853     24.000000
  0.147831  0.170700  0.077853     12.000000
  0.098554  0.170700  0.077853     12.000000
  0.123192  0.184925  0.077853     24.000000
  0.123192  0.213375  0.077853      4.000000
  0.000000  0.000000  0.093423      2.000000
  0.024638  0.014225  0.093423     12.000000
  0.049277  0.028450  0.093423     12.000000
  0.073915  0.042675  0.093423     12.000000
  0.098554  0.056900  0.093423     12.000000
  0.123192  0.071125  0.093423     12.000000
  0.147831  0.085350  0.093423     12.000000
  0.172469  0.099575  0.093423     12.000000
  0.024638  0.042675  0.093423     12.000000
  0.049277  0.056900  0.093423     24.000000
  0.073915  0.071125  0.093423     24.000000
  0.098554  0.085350  0.093423     24.000000
  0.123192  0.099575  0.093423     24.000000
  0.147831  0.113800  0.093423     24.000000
  0.172469  0.128025  0.093423     12.000000
  0.049277  0.085350  0.093423     12.000000
  0.073915  0.099575  0.093423     24.000000
  0.098554  0.113800  0.093423     24.000000
  0.123192  0.128025  0.093423     24.000000
  0.147831  0.142250  0.093423     24.000000
  0.073915  0.128025  0.093423     12.000000
  0.098554  0.142250  0.093423     24.000000
  0.123192  0.156475  0.093423     24.000000
  0.147831  0.170700  0.093423     12.000000
  0.098554  0.170700  0.093423     12.000000
  0.123192  0.184925  0.093423     24.000000
  0.123192  0.213375  0.093423      4.000000
  0.000000  0.000000  0.108994      2.000000
  0.024638  0.014225  0.108994     12.000000
  0.049277  0.028450  0.108994     12.000000
  0.073915  0.042675  0.108994     12.000000
  0.098554  0.056900  0.108994     12.000000
  0.123192  0.071125  0.108994     12.000000
  0.147831  0.085350  0.108994     12.000000
  0.172469  0.099575  0.108994     12.000000
  0.024638  0.042675  0.108994     12.000000
  0.049277  0.056900  0.108994     24.000000
  0.073915  0.071125  0.108994     24.000000
  0.098554  0.085350  0.108994     24.000000
  0.123192  0.099575  0.108994     24.000000
  0.147831  0.113800  0.108994     24.000000
  0.172469  0.128025  0.108994     12.000000
  0.049277  0.085350  0.108994     12.000000
  0.073915  0.099575  0.108994     24.000000
  0.098554  0.113800  0.108994     24.000000
  0.123192  0.128025  0.108994     24.000000
  0.147831  0.142250  0.108994     24.000000
  0.073915  0.128025  0.108994     12.000000
  0.098554  0.142250  0.108994     24.000000
  0.123192  0.156475  0.108994     24.000000
  0.147831  0.170700  0.108994     12.000000
  0.098554  0.170700  0.108994     12.000000
  0.123192  0.184925  0.108994     24.000000
  0.123192  0.213375  0.108994      4.000000
 


--------------------------------------------------------------------------------------------------------




 Dimension of arrays:
   k-points           NKPTS =    216   k-points in BZ     NKDIM =    216   number of bands    NBANDS=     12
   number of dos      NEDOS =   3000   number of ions     NIONS =      2
   non local maximal  LDIM  =      6   non local SUM 2l+1 LMDIM =     18
   total plane-waves  NPLWV =   4704
   max r-space proj   IRMAX =   2541   max aug-charges    IRDMAX=  11918
   dimension x,y,z NGX =    14 NGY =   14 NGZ =   24
   dimension x,y,z NGXF=    28 NGYF=   28 NGZF=   48
   support grid    NGXF=    28 NGYF=   28 NGZF=   48
   ions per type =               2
 NGX,Y,Z   is equivalent  to a cutoff of   8.60,  8.60,  9.32 a.u.
 NGXF,Y,Z  is equivalent  to a cutoff of  17.20, 17.20, 18.64 a.u.


 I would recommend the setting:
   dimension x,y,z NGX =    13 NGY =   13 NGZ =   21
 SYSTEM =  Cu-lattice                              
 POSCAR =  Ru                                      

 Startparameter for this run:
   NWRITE =      2    write-flag & timer
   PREC   = normal    normal or accurate (medium, high low for compatibility)
   ISTART =      0    job   : 0-new  1-cont  2-samecut
   ICHARG =      2    charge: 1-file 2-atom 10-const
   ISPIN  =      1    spin polarized calculation?
   LNONCOLLINEAR =      F non collinear calculations
   LSORBIT =      F    spin-orbit coupling
   INIWAV =      1    electr: 0-lowe 1-rand  2-diag
   LASPH  =      F    aspherical Exc in radial PAW
   METAGGA=      F    non-selfconsistent MetaGGA calc.

 Electronic Relaxation 1
   ENCUT  =  400.0 eV  29.40 Ry    5.42 a.u.   4.41  4.41  6.98*2*pi/ulx,y,z
   ENINI  =  400.0     initial cutoff
   ENAUG  =  333.5 eV  augmentation charge cutoff
   NELM   =    100;   NELMIN=  2; NELMDL= -5     # of ELM steps 
   EDIFF  = 0.1E-05   stopping-criterion for ELM
   LREAL  =      T    real-space projection
   NLSPLINE    = F    spline interpolate recip. space projectors
   LCOMPAT=      F    compatible to vasp.4.4
   GGA_COMPAT  = T    GGA compatible to vasp.4.4-vasp.4.6
   LMAXPAW     = -100 max onsite density
   LMAXMIX     =    2 max onsite mixed and CHGCAR
   VOSKOWN=      0    Vosko Wilk Nusair interpolation
   ROPT   =   -0.00050
 Ionic relaxation
   EDIFFG = 0.2E-02   stopping-criterion for IOM
   NSW    =      1    number of steps for IOM
   NBLOCK =      1;   KBLOCK =      1    inner block; outer block 
   IBRION =      1    ionic relax: 0-MD 1-quasi-New 2-CG
   NFREE  =      0    steps in history (QN), initial steepest desc. (CG)
   ISIF   =      3    stress and relaxation
   IWAVPR =     11    prediction:  0-non 1-charg 2-wave 3-comb
   ISYM   =      2    0-nonsym 1-usesym 2-fastsym
   LCORR  =      T    Harris-Foulkes like correction to forces

   POTIM  = 0.1000    time-step for ionic-motion
   TEIN   =    0.0    initial temperature
   TEBEG  =    0.0;   TEEND  =   0.0 temperature during run
   SMASS  =  -3.00    Nose mass-parameter (am)
   estimated Nose-frequenzy (Omega)   =  0.10E-29 period in steps =****** mass=  -0.167E-27a.u.
   SCALEE = 1.0000    scale energy and forces
   NPACO  =    256;   APACO  = 16.0  distance and # of slots for P.C.
   PSTRESS=    0.0 pullay stress

  Mass of Ions in am
   POMASS = 101.07
  Ionic Valenz
   ZVAL   =   8.00
  Atomic Wigner-Seitz radii
   RWIGS  =  -1.00
  virtual crystal weights 
   VCA    =   1.00
   NELECT =      16.0000    total number of electrons
   NUPDOWN=      -1.0000    fix difference up-down

 DOS related values:
   EMIN   =  10.00;   EMAX   =-10.00  energy-range for DOS
   EFERMI =   0.00
   ISMEAR =     1;   SIGMA  =   0.10  broadening in eV -4-tet -1-fermi 0-gaus

 Electronic relaxation 2 (details)
   IALGO  =     68    algorithm
   LDIAG  =      T    sub-space diagonalisation (order eigenvalues)
   LSUBROT=      F    optimize rotation matrix (better conditioning)
   TURBO    =      0    0=normal 1=particle mesh
   IRESTART =      0    0=no restart 2=restart with 2 vectors
   NREBOOT  =      0    no. of reboots
   NMIN     =      0    reboot dimension
   EREF     =   0.00    reference energy to select bands
   IMIX   =      4    mixing-type and parameters
     AMIX     =   0.40;   BMIX     =  1.00
     AMIX_MAG =   1.60;   BMIX_MAG =  1.00
     AMIN     =   0.10
     WC   =   100.;   INIMIX=   1;  MIXPRE=   1;  MAXMIX= -45

 Intra band minimization:
   WEIMIN = 0.0010     energy-eigenvalue tresh-hold
   EBREAK =  0.21E-07  absolut break condition
   DEPER  =   0.30     relativ break condition  

   TIME   =   0.40     timestep for ELM

  volume/ion in A,a.u.               =      13.57        91.60
  Fermi-wavevector in a.u.,A,eV,Ry     =   1.372584  2.593807 25.633179  1.883986
  Thomas-Fermi vector in A             =   2.498177
 
 Write flags
   LWAVE  =      T    write WAVECAR
   LCHARG =      T    write CHGCAR
   LVTOT  =      F    write LOCPOT, total local potential
   LVHAR  =      F    write LOCPOT, Hartree potential only
   LELF   =      F    write electronic localiz. function (ELF)
   LORBIT =     11    0 simple, 1 ext, 2 COOP (PROOUT)


 Dipole corrections
   LMONO  =      F    monopole corrections only (constant potential shift)
   LDIPOL =      F    correct potential (dipole corrections)
   IDIPOL =      0    1-x, 2-y, 3-z, 4-all directions 
   EPSILON=  1.0000000 bulk dielectric constant

 Exchange correlation treatment:
   GGA     =    PE    GGA type
   LEXCH   =     8    internal setting for exchange type
   VOSKOWN=      0    Vosko Wilk Nusair interpolation
   LHFCALC =     F    Hartree Fock is set to
   LHFONE  =     F    Hartree Fock one center treatment
   AEXX    =    0.0000 exact exchange contribution

 Linear response parameters
   LEPSILON=     F    determine dielectric tensor
   LRPA    =     F    only Hartree local field effects (RPA)
   LNABLA  =     F    use nabla operator in PAW spheres
   LVEL    =     F    velocity operator in full k-point grid
   LINTERFAST=   F  fast interpolation
   KINTER  =     0    interpolate to denser k-point grid
   CSHIFT  =0.1000    complex shift for real part using Kramers Kronig
   OMEGAMAX=  -1.0    maximum frequency
   DEG_THRESHOLD= 0.2000000E-02 threshold for treating states as degnerate
   RTIME   =    0.100 relaxation time in fs

 Orbital magnetization related:
   ORBITALMAG=     F  switch on orbital magnetization
   LCHIMAG   =     F  perturbation theory with respect to B field
   DQ        =  0.001000  dq finite difference perturbation B field



--------------------------------------------------------------------------------------------------------


 quasi-Newton-method for relaxation of ions
   using selective dynamics as specified on POSCAR
 charge density and potential will be updated during run
 non-spin polarized calculation
 RMM-DIIS sequential band-by-band and
  variant of blocked Davidson during initial phase
 perform sub-space diagonalisation
    before iterative eigenvector-optimisation
 modified Broyden-mixing scheme, WC =      100.0
 initial mixing is a Kerker type mixing with AMIX =  0.4000 and BMIX =      1.0000
 Hartree-type preconditioning will be used
 using additional bands            4
 real space projection scheme for non local part
 use partial core corrections
 calculate Harris-corrections to forces 
   (improved forces if not selfconsistent)
 use gradient corrections 
 use of overlap-Matrix (Vanderbilt PP)
 Methfessel and Paxton  Order N= 1 SIGMA  =   0.10


--------------------------------------------------------------------------------------------------------


  energy-cutoff  :      400.00
  volume of cell :       27.15
      direct lattice vectors                 reciprocal lattice vectors
     2.705800057  0.000000000  0.000000000     0.369576458  0.213375067  0.000000000
    -1.352900028  2.343291586  0.000000000     0.000000000  0.426750135  0.000000000
     0.000000000  0.000000000  4.281599998     0.000000000  0.000000000  0.233557549

  length of vectors
     2.705800057  2.705800056  4.281599998     0.426750135  0.426750135  0.233557549


 
 k-points in units of 2pi/SCALE and weight: K-points                                
   0.00000000  0.00000000  0.00000000       0.000
   0.02463843  0.01422500  0.00000000       0.002
   0.04927686  0.02845001  0.00000000       0.002
   0.07391529  0.04267501  0.00000000       0.002
   0.09855372  0.05690002  0.00000000       0.002
   0.12319215  0.07112502  0.00000000       0.002
   0.14783058  0.08535003  0.00000000       0.002
   0.17246901  0.09957503  0.00000000       0.002
   0.02463843  0.04267501  0.00000000       0.002
   0.04927686  0.05690002  0.00000000       0.004
   0.07391529  0.07112502  0.00000000       0.004
   0.09855372  0.08535003  0.00000000       0.004
   0.12319215  0.09957503  0.00000000       0.004
   0.14783058  0.11380004  0.00000000       0.004
   0.17246901  0.12802504  0.00000000       0.002
   0.04927686  0.08535003  0.00000000       0.002
   0.07391529  0.09957503  0.00000000       0.004
   0.09855372  0.11380004  0.00000000       0.004
   0.12319215  0.12802504  0.00000000       0.004
   0.14783058  0.14225004  0.00000000       0.004
   0.07391529  0.12802504  0.00000000       0.002
   0.09855372  0.14225004  0.00000000       0.004
   0.12319215  0.15647505  0.00000000       0.004
   0.14783058  0.17070005  0.00000000       0.002
   0.09855372  0.17070005  0.00000000       0.002
   0.12319215  0.18492506  0.00000000       0.004
   0.12319215  0.21337507  0.00000000       0.001
   0.00000000  0.00000000  0.01557050       0.001
   0.02463843  0.01422500  0.01557050       0.004
   0.04927686  0.02845001  0.01557050       0.004
   0.07391529  0.04267501  0.01557050       0.004
   0.09855372  0.05690002  0.01557050       0.004
   0.12319215  0.07112502  0.01557050       0.004
   0.14783058  0.08535003  0.01557050       0.004
   0.17246901  0.09957503  0.01557050       0.004
   0.02463843  0.04267501  0.01557050       0.004
   0.04927686  0.05690002  0.01557050       0.007
   0.07391529  0.07112502  0.01557050       0.007
   0.09855372  0.08535003  0.01557050       0.007
   0.12319215  0.09957503  0.01557050       0.007
   0.14783058  0.11380004  0.01557050       0.007
   0.17246901  0.12802504  0.01557050       0.004
   0.04927686  0.08535003  0.01557050       0.004
   0.07391529  0.09957503  0.01557050       0.007
   0.09855372  0.11380004  0.01557050       0.007
   0.12319215  0.12802504  0.01557050       0.007
   0.14783058  0.14225004  0.01557050       0.007
   0.07391529  0.12802504  0.01557050       0.004
   0.09855372  0.14225004  0.01557050       0.007
   0.12319215  0.15647505  0.01557050       0.007
   0.14783058  0.17070005  0.01557050       0.004
   0.09855372  0.17070005  0.01557050       0.004
   0.12319215  0.18492506  0.01557050       0.007
   0.12319215  0.21337507  0.01557050       0.001
   0.00000000  0.00000000  0.03114101       0.001
   0.02463843  0.01422500  0.03114101       0.004
   0.04927686  0.02845001  0.03114101       0.004
   0.07391529  0.04267501  0.03114101       0.004
   0.09855372  0.05690002  0.03114101       0.004
   0.12319215  0.07112502  0.03114101       0.004
   0.14783058  0.08535003  0.03114101       0.004
   0.17246901  0.09957503  0.03114101       0.004
   0.02463843  0.04267501  0.03114101       0.004
   0.04927686  0.05690002  0.03114101       0.007
   0.07391529  0.07112502  0.03114101       0.007
   0.09855372  0.08535003  0.03114101       0.007
   0.12319215  0.09957503  0.03114101       0.007
   0.14783058  0.11380004  0.03114101       0.007
   0.17246901  0.12802504  0.03114101       0.004
   0.04927686  0.08535003  0.03114101       0.004
   0.07391529  0.09957503  0.03114101       0.007
   0.09855372  0.11380004  0.03114101       0.007
   0.12319215  0.12802504  0.03114101       0.007
   0.14783058  0.14225004  0.03114101       0.007
   0.07391529  0.12802504  0.03114101       0.004
   0.09855372  0.14225004  0.03114101       0.007
   0.12319215  0.15647505  0.03114101       0.007
   0.14783058  0.17070005  0.03114101       0.004
   0.09855372  0.17070005  0.03114101       0.004
   0.12319215  0.18492506  0.03114101       0.007
   0.12319215  0.21337507  0.03114101       0.001
   0.00000000  0.00000000  0.04671151       0.001
   0.02463843  0.01422500  0.04671151       0.004
   0.04927686  0.02845001  0.04671151       0.004
   0.07391529  0.04267501  0.04671151       0.004
   0.09855372  0.05690002  0.04671151       0.004
   0.12319215  0.07112502  0.04671151       0.004
   0.14783058  0.08535003  0.04671151       0.004
   0.17246901  0.09957503  0.04671151       0.004
   0.02463843  0.04267501  0.04671151       0.004
   0.04927686  0.05690002  0.04671151       0.007
   0.07391529  0.07112502  0.04671151       0.007
   0.09855372  0.08535003  0.04671151       0.007
   0.12319215  0.09957503  0.04671151       0.007
   0.14783058  0.11380004  0.04671151       0.007
   0.17246901  0.12802504  0.04671151       0.004
   0.04927686  0.08535003  0.04671151       0.004
   0.07391529  0.09957503  0.04671151       0.007
   0.09855372  0.11380004  0.04671151       0.007
   0.12319215  0.12802504  0.04671151       0.007
   0.14783058  0.14225004  0.04671151       0.007
   0.07391529  0.12802504  0.04671151       0.004
   0.09855372  0.14225004  0.04671151       0.007
   0.12319215  0.15647505  0.04671151       0.007
   0.14783058  0.17070005  0.04671151       0.004
   0.09855372  0.17070005  0.04671151       0.004
   0.12319215  0.18492506  0.04671151       0.007
   0.12319215  0.21337507  0.04671151       0.001
   0.00000000  0.00000000  0.06228201       0.001
   0.02463843  0.01422500  0.06228201       0.004
   0.04927686  0.02845001  0.06228201       0.004
   0.07391529  0.04267501  0.06228201       0.004
   0.09855372  0.05690002  0.06228201       0.004
   0.12319215  0.07112502  0.06228201       0.004
   0.14783058  0.08535003  0.06228201       0.004
   0.17246901  0.09957503  0.06228201       0.004
   0.02463843  0.04267501  0.06228201       0.004
   0.04927686  0.05690002  0.06228201       0.007
   0.07391529  0.07112502  0.06228201       0.007
   0.09855372  0.08535003  0.06228201       0.007
   0.12319215  0.09957503  0.06228201       0.007
   0.14783058  0.11380004  0.06228201       0.007
   0.17246901  0.12802504  0.06228201       0.004
   0.04927686  0.08535003  0.06228201       0.004
   0.07391529  0.09957503  0.06228201       0.007
   0.09855372  0.11380004  0.06228201       0.007
   0.12319215  0.12802504  0.06228201       0.007
   0.14783058  0.14225004  0.06228201       0.007
   0.07391529  0.12802504  0.06228201       0.004
   0.09855372  0.14225004  0.06228201       0.007
   0.12319215  0.15647505  0.06228201       0.007
   0.14783058  0.17070005  0.06228201       0.004
   0.09855372  0.17070005  0.06228201       0.004
   0.12319215  0.18492506  0.06228201       0.007
   0.12319215  0.21337507  0.06228201       0.001
   0.00000000  0.00000000  0.07785252       0.001
   0.02463843  0.01422500  0.07785252       0.004
   0.04927686  0.02845001  0.07785252       0.004
   0.07391529  0.04267501  0.07785252       0.004
   0.09855372  0.05690002  0.07785252       0.004
   0.12319215  0.07112502  0.07785252       0.004
   0.14783058  0.08535003  0.07785252       0.004
   0.17246901  0.09957503  0.07785252       0.004
   0.02463843  0.04267501  0.07785252       0.004
   0.04927686  0.05690002  0.07785252       0.007
   0.07391529  0.07112502  0.07785252       0.007
   0.09855372  0.08535003  0.07785252       0.007
   0.12319215  0.09957503  0.07785252       0.007
   0.14783058  0.11380004  0.07785252       0.007
   0.17246901  0.12802504  0.07785252       0.004
   0.04927686  0.08535003  0.07785252       0.004
   0.07391529  0.09957503  0.07785252       0.007
   0.09855372  0.11380004  0.07785252       0.007
   0.12319215  0.12802504  0.07785252       0.007
   0.14783058  0.14225004  0.07785252       0.007
   0.07391529  0.12802504  0.07785252       0.004
   0.09855372  0.14225004  0.07785252       0.007
   0.12319215  0.15647505  0.07785252       0.007
   0.14783058  0.17070005  0.07785252       0.004
   0.09855372  0.17070005  0.07785252       0.004
   0.12319215  0.18492506  0.07785252       0.007
   0.12319215  0.21337507  0.07785252       0.001
   0.00000000  0.00000000  0.09342302       0.001
   0.02463843  0.01422500  0.09342302       0.004
   0.04927686  0.02845001  0.09342302       0.004
   0.07391529  0.04267501  0.09342302       0.004
   0.09855372  0.05690002  0.09342302       0.004
   0.12319215  0.07112502  0.09342302       0.004
   0.14783058  0.08535003  0.09342302       0.004
   0.17246901  0.09957503  0.09342302       0.004
   0.02463843  0.04267501  0.09342302       0.004
   0.04927686  0.05690002  0.09342302       0.007
   0.07391529  0.07112502  0.09342302       0.007
   0.09855372  0.08535003  0.09342302       0.007
   0.12319215  0.09957503  0.09342302       0.007
   0.14783058  0.11380004  0.09342302       0.007
   0.17246901  0.12802504  0.09342302       0.004
   0.04927686  0.08535003  0.09342302       0.004
   0.07391529  0.09957503  0.09342302       0.007
   0.09855372  0.11380004  0.09342302       0.007
   0.12319215  0.12802504  0.09342302       0.007
   0.14783058  0.14225004  0.09342302       0.007
   0.07391529  0.12802504  0.09342302       0.004
   0.09855372  0.14225004  0.09342302       0.007
   0.12319215  0.15647505  0.09342302       0.007
   0.14783058  0.17070005  0.09342302       0.004
   0.09855372  0.17070005  0.09342302       0.004
   0.12319215  0.18492506  0.09342302       0.007
   0.12319215  0.21337507  0.09342302       0.001
   0.00000000  0.00000000  0.10899352       0.001
   0.02463843  0.01422500  0.10899352       0.004
   0.04927686  0.02845001  0.10899352       0.004
   0.07391529  0.04267501  0.10899352       0.004
   0.09855372  0.05690002  0.10899352       0.004
   0.12319215  0.07112502  0.10899352       0.004
   0.14783058  0.08535003  0.10899352       0.004
   0.17246901  0.09957503  0.10899352       0.004
   0.02463843  0.04267501  0.10899352       0.004
   0.04927686  0.05690002  0.10899352       0.007
   0.07391529  0.07112502  0.10899352       0.007
   0.09855372  0.08535003  0.10899352       0.007
   0.12319215  0.09957503  0.10899352       0.007
   0.14783058  0.11380004  0.10899352       0.007
   0.17246901  0.12802504  0.10899352       0.004
   0.04927686  0.08535003  0.10899352       0.004
   0.07391529  0.09957503  0.10899352       0.007
   0.09855372  0.11380004  0.10899352       0.007
   0.12319215  0.12802504  0.10899352       0.007
   0.14783058  0.14225004  0.10899352       0.007
   0.07391529  0.12802504  0.10899352       0.004
   0.09855372  0.14225004  0.10899352       0.007
   0.12319215  0.15647505  0.10899352       0.007
   0.14783058  0.17070005  0.10899352       0.004
   0.09855372  0.17070005  0.10899352       0.004
   0.12319215  0.18492506  0.10899352       0.007
   0.12319215  0.21337507  0.10899352       0.001
 
 k-points in reciprocal lattice and weights: K-points                                
   0.00000000  0.00000000  0.00000000       0.000
   0.06666667 -0.00000000  0.00000000       0.002
   0.13333333 -0.00000000  0.00000000       0.002
   0.20000000 -0.00000000  0.00000000       0.002
   0.26666667 -0.00000000  0.00000000       0.002
   0.33333333  0.00000000  0.00000000       0.002
   0.40000000 -0.00000000  0.00000000       0.002
   0.46666667 -0.00000000  0.00000000       0.002
   0.06666667  0.06666667  0.00000000       0.002
   0.13333333  0.06666667  0.00000000       0.004
   0.20000000  0.06666667  0.00000000       0.004
   0.26666667  0.06666667  0.00000000       0.004
   0.33333333  0.06666667  0.00000000       0.004
   0.40000000  0.06666667  0.00000000       0.004
   0.46666667  0.06666667  0.00000000       0.002
   0.13333333  0.13333333  0.00000000       0.002
   0.20000000  0.13333333  0.00000000       0.004
   0.26666667  0.13333333  0.00000000       0.004
   0.33333333  0.13333333  0.00000000       0.004
   0.40000000  0.13333333  0.00000000       0.004
   0.20000000  0.20000000  0.00000000       0.002
   0.26666667  0.20000000  0.00000000       0.004
   0.33333333  0.20000000  0.00000000       0.004
   0.40000000  0.20000000  0.00000000       0.002
   0.26666667  0.26666667  0.00000000       0.002
   0.33333333  0.26666667  0.00000000       0.004
   0.33333333  0.33333333  0.00000000       0.001
   0.00000000  0.00000000  0.06666667       0.001
   0.06666667 -0.00000000  0.06666667       0.004
   0.13333333 -0.00000000  0.06666667       0.004
   0.20000000 -0.00000000  0.06666667       0.004
   0.26666667 -0.00000000  0.06666667       0.004
   0.33333333  0.00000000  0.06666667       0.004
   0.40000000 -0.00000000  0.06666667       0.004
   0.46666667 -0.00000000  0.06666667       0.004
   0.06666667  0.06666667  0.06666667       0.004
   0.13333333  0.06666667  0.06666667       0.007
   0.20000000  0.06666667  0.06666667       0.007
   0.26666667  0.06666667  0.06666667       0.007
   0.33333333  0.06666667  0.06666667       0.007
   0.40000000  0.06666667  0.06666667       0.007
   0.46666667  0.06666667  0.06666667       0.004
   0.13333333  0.13333333  0.06666667       0.004
   0.20000000  0.13333333  0.06666667       0.007
   0.26666667  0.13333333  0.06666667       0.007
   0.33333333  0.13333333  0.06666667       0.007
   0.40000000  0.13333333  0.06666667       0.007
   0.20000000  0.20000000  0.06666667       0.004
   0.26666667  0.20000000  0.06666667       0.007
   0.33333333  0.20000000  0.06666667       0.007
   0.40000000  0.20000000  0.06666667       0.004
   0.26666667  0.26666667  0.06666667       0.004
   0.33333333  0.26666667  0.06666667       0.007
   0.33333333  0.33333333  0.06666667       0.001
   0.00000000  0.00000000  0.13333333       0.001
   0.06666667 -0.00000000  0.13333333       0.004
   0.13333333 -0.00000000  0.13333333       0.004
   0.20000000 -0.00000000  0.13333333       0.004
   0.26666667 -0.00000000  0.13333333       0.004
   0.33333333  0.00000000  0.13333333       0.004
   0.40000000 -0.00000000  0.13333333       0.004
   0.46666667 -0.00000000  0.13333333       0.004
   0.06666667  0.06666667  0.13333333       0.004
   0.13333333  0.06666667  0.13333333       0.007
   0.20000000  0.06666667  0.13333333       0.007
   0.26666667  0.06666667  0.13333333       0.007
   0.33333333  0.06666667  0.13333333       0.007
   0.40000000  0.06666667  0.13333333       0.007
   0.46666667  0.06666667  0.13333333       0.004
   0.13333333  0.13333333  0.13333333       0.004
   0.20000000  0.13333333  0.13333333       0.007
   0.26666667  0.13333333  0.13333333       0.007
   0.33333333  0.13333333  0.13333333       0.007
   0.40000000  0.13333333  0.13333333       0.007
   0.20000000  0.20000000  0.13333333       0.004
   0.26666667  0.20000000  0.13333333       0.007
   0.33333333  0.20000000  0.13333333       0.007
   0.40000000  0.20000000  0.13333333       0.004
   0.26666667  0.26666667  0.13333333       0.004
   0.33333333  0.26666667  0.13333333       0.007
   0.33333333  0.33333333  0.13333333       0.001
   0.00000000  0.00000000  0.20000000       0.001
   0.06666667 -0.00000000  0.20000000       0.004
   0.13333333 -0.00000000  0.20000000       0.004
   0.20000000 -0.00000000  0.20000000       0.004
   0.26666667 -0.00000000  0.20000000       0.004
   0.33333333  0.00000000  0.20000000       0.004
   0.40000000 -0.00000000  0.20000000       0.004
   0.46666667 -0.00000000  0.20000000       0.004
   0.06666667  0.06666667  0.20000000       0.004
   0.13333333  0.06666667  0.20000000       0.007
   0.20000000  0.06666667  0.20000000       0.007
   0.26666667  0.06666667  0.20000000       0.007
   0.33333333  0.06666667  0.20000000       0.007
   0.40000000  0.06666667  0.20000000       0.007
   0.46666667  0.06666667  0.20000000       0.004
   0.13333333  0.13333333  0.20000000       0.004
   0.20000000  0.13333333  0.20000000       0.007
   0.26666667  0.13333333  0.20000000       0.007
   0.33333333  0.13333333  0.20000000       0.007
   0.40000000  0.13333333  0.20000000       0.007
   0.20000000  0.20000000  0.20000000       0.004
   0.26666667  0.20000000  0.20000000       0.007
   0.33333333  0.20000000  0.20000000       0.007
   0.40000000  0.20000000  0.20000000       0.004
   0.26666667  0.26666667  0.20000000       0.004
   0.33333333  0.26666667  0.20000000       0.007
   0.33333333  0.33333333  0.20000000       0.001
   0.00000000  0.00000000  0.26666667       0.001
   0.06666667 -0.00000000  0.26666667       0.004
   0.13333333 -0.00000000  0.26666667       0.004
   0.20000000 -0.00000000  0.26666667       0.004
   0.26666667 -0.00000000  0.26666667       0.004
   0.33333333  0.00000000  0.26666667       0.004
   0.40000000 -0.00000000  0.26666667       0.004
   0.46666667 -0.00000000  0.26666667       0.004
   0.06666667  0.06666667  0.26666667       0.004
   0.13333333  0.06666667  0.26666667       0.007
   0.20000000  0.06666667  0.26666667       0.007
   0.26666667  0.06666667  0.26666667       0.007
   0.33333333  0.06666667  0.26666667       0.007
   0.40000000  0.06666667  0.26666667       0.007
   0.46666667  0.06666667  0.26666667       0.004
   0.13333333  0.13333333  0.26666667       0.004
   0.20000000  0.13333333  0.26666667       0.007
   0.26666667  0.13333333  0.26666667       0.007
   0.33333333  0.13333333  0.26666667       0.007
   0.40000000  0.13333333  0.26666667       0.007
   0.20000000  0.20000000  0.26666667       0.004
   0.26666667  0.20000000  0.26666667       0.007
   0.33333333  0.20000000  0.26666667       0.007
   0.40000000  0.20000000  0.26666667       0.004
   0.26666667  0.26666667  0.26666667       0.004
   0.33333333  0.26666667  0.26666667       0.007
   0.33333333  0.33333333  0.26666667       0.001
   0.00000000  0.00000000  0.33333333       0.001
   0.06666667 -0.00000000  0.33333333       0.004
   0.13333333 -0.00000000  0.33333333       0.004
   0.20000000 -0.00000000  0.33333333       0.004
   0.26666667 -0.00000000  0.33333333       0.004
   0.33333333  0.00000000  0.33333333       0.004
   0.40000000 -0.00000000  0.33333333       0.004
   0.46666667 -0.00000000  0.33333333       0.004
   0.06666667  0.06666667  0.33333333       0.004
   0.13333333  0.06666667  0.33333333       0.007
   0.20000000  0.06666667  0.33333333       0.007
   0.26666667  0.06666667  0.33333333       0.007
   0.33333333  0.06666667  0.33333333       0.007
   0.40000000  0.06666667  0.33333333       0.007
   0.46666667  0.06666667  0.33333333       0.004
   0.13333333  0.13333333  0.33333333       0.004
   0.20000000  0.13333333  0.33333333       0.007
   0.26666667  0.13333333  0.33333333       0.007
   0.33333333  0.13333333  0.33333333       0.007
   0.40000000  0.13333333  0.33333333       0.007
   0.20000000  0.20000000  0.33333333       0.004
   0.26666667  0.20000000  0.33333333       0.007
   0.33333333  0.20000000  0.33333333       0.007
   0.40000000  0.20000000  0.33333333       0.004
   0.26666667  0.26666667  0.33333333       0.004
   0.33333333  0.26666667  0.33333333       0.007
   0.33333333  0.33333333  0.33333333       0.001
   0.00000000  0.00000000  0.40000000       0.001
   0.06666667 -0.00000000  0.40000000       0.004
   0.13333333 -0.00000000  0.40000000       0.004
   0.20000000 -0.00000000  0.40000000       0.004
   0.26666667 -0.00000000  0.40000000       0.004
   0.33333333  0.00000000  0.40000000       0.004
   0.40000000 -0.00000000  0.40000000       0.004
   0.46666667 -0.00000000  0.40000000       0.004
   0.06666667  0.06666667  0.40000000       0.004
   0.13333333  0.06666667  0.40000000       0.007
   0.20000000  0.06666667  0.40000000       0.007
   0.26666667  0.06666667  0.40000000       0.007
   0.33333333  0.06666667  0.40000000       0.007
   0.40000000  0.06666667  0.40000000       0.007
   0.46666667  0.06666667  0.40000000       0.004
   0.13333333  0.13333333  0.40000000       0.004
   0.20000000  0.13333333  0.40000000       0.007
   0.26666667  0.13333333  0.40000000       0.007
   0.33333333  0.13333333  0.40000000       0.007
   0.40000000  0.13333333  0.40000000       0.007
   0.20000000  0.20000000  0.40000000       0.004
   0.26666667  0.20000000  0.40000000       0.007
   0.33333333  0.20000000  0.40000000       0.007
   0.40000000  0.20000000  0.40000000       0.004
   0.26666667  0.26666667  0.40000000       0.004
   0.33333333  0.26666667  0.40000000       0.007
   0.33333333  0.33333333  0.40000000       0.001
   0.00000000  0.00000000  0.46666667       0.001
   0.06666667 -0.00000000  0.46666667       0.004
   0.13333333 -0.00000000  0.46666667       0.004
   0.20000000 -0.00000000  0.46666667       0.004
   0.26666667 -0.00000000  0.46666667       0.004
   0.33333333  0.00000000  0.46666667       0.004
   0.40000000 -0.00000000  0.46666667       0.004
   0.46666667 -0.00000000  0.46666667       0.004
   0.06666667  0.06666667  0.46666667       0.004
   0.13333333  0.06666667  0.46666667       0.007
   0.20000000  0.06666667  0.46666667       0.007
   0.26666667  0.06666667  0.46666667       0.007
   0.33333333  0.06666667  0.46666667       0.007
   0.40000000  0.06666667  0.46666667       0.007
   0.46666667  0.06666667  0.46666667       0.004
   0.13333333  0.13333333  0.46666667       0.004
   0.20000000  0.13333333  0.46666667       0.007
   0.26666667  0.13333333  0.46666667       0.007
   0.33333333  0.13333333  0.46666667       0.007
   0.40000000  0.13333333  0.46666667       0.007
   0.20000000  0.20000000  0.46666667       0.004
   0.26666667  0.20000000  0.46666667       0.007
   0.33333333  0.20000000  0.46666667       0.007
   0.40000000  0.20000000  0.46666667       0.004
   0.26666667  0.26666667  0.46666667       0.004
   0.33333333  0.26666667  0.46666667       0.007
   0.33333333  0.33333333  0.46666667       0.001
 
 position of ions in fractional coordinates (direct lattice) 
   0.33333334  0.66666669  0.25000000
   0.66666663  0.33333331  0.75000000
 
 position of ions in cartesian coordinates  (Angst):
  -0.00000000  1.56219444  1.07040000
   1.35289995  0.78109715  3.21120000
 


--------------------------------------------------------------------------------------------------------


 k-point  1 :   0.0000 0.0000 0.0000  plane waves:     511
 k-point  2 :   0.0667-0.0000 0.0000  plane waves:     505
 k-point  3 :   0.1333-0.0000 0.0000  plane waves:     499
 k-point  4 :   0.2000-0.0000 0.0000  plane waves:     496
 k-point  5 :   0.2667-0.0000 0.0000  plane waves:     484
 k-point  6 :   0.3333 0.0000 0.0000  plane waves:     484
 k-point  7 :   0.4000-0.0000 0.0000  plane waves:     488
 k-point  8 :   0.4667-0.0000 0.0000  plane waves:     484
 k-point  9 :   0.0667 0.0667 0.0000  plane waves:     501
 k-point 10 :   0.1333 0.0667 0.0000  plane waves:     499
 k-point 11 :   0.2000 0.0667 0.0000  plane waves:     495
 k-point 12 :   0.2667 0.0667 0.0000  plane waves:     494
 k-point 13 :   0.3333 0.0667 0.0000  plane waves:     491
 k-point 14 :   0.4000 0.0667 0.0000  plane waves:     488
 k-point 15 :   0.4667 0.0667 0.0000  plane waves:     486
 k-point 16 :   0.1333 0.1333 0.0000  plane waves:     493
 k-point 17 :   0.2000 0.1333 0.0000  plane waves:     494
 k-point 18 :   0.2667 0.1333 0.0000  plane waves:     490
 k-point 19 :   0.3333 0.1333 0.0000  plane waves:     494
 k-point 20 :   0.4000 0.1333 0.0000  plane waves:     488
 k-point 21 :   0.2000 0.2000 0.0000  plane waves:     491
 k-point 22 :   0.2667 0.2000 0.0000  plane waves:     490
 k-point 23 :   0.3333 0.2000 0.0000  plane waves:     490
 k-point 24 :   0.4000 0.2000 0.0000  plane waves:     480
 k-point 25 :   0.2667 0.2667 0.0000  plane waves:     490
 k-point 26 :   0.3333 0.2667 0.0000  plane waves:     486
 k-point 27 :   0.3333 0.3333 0.0000  plane waves:     480
 k-point 28 :   0.0000 0.0000 0.0667  plane waves:     512
 k-point 29 :   0.0667-0.0000 0.0667  plane waves:     507
 k-point 30 :   0.1333-0.0000 0.0667  plane waves:     503
 k-point 31 :   0.2000-0.0000 0.0667  plane waves:     497
 k-point 32 :   0.2667-0.0000 0.0667  plane waves:     489
 k-point 33 :   0.3333 0.0000 0.0667  plane waves:     485
 k-point 34 :   0.4000-0.0000 0.0667  plane waves:     487
 k-point 35 :   0.4667-0.0000 0.0667  plane waves:     487
 k-point 36 :   0.0667 0.0667 0.0667  plane waves:     504
 k-point 37 :   0.1333 0.0667 0.0667  plane waves:     501
 k-point 38 :   0.2000 0.0667 0.0667  plane waves:     495
 k-point 39 :   0.2667 0.0667 0.0667  plane waves:     491
 k-point 40 :   0.3333 0.0667 0.0667  plane waves:     490
 k-point 41 :   0.4000 0.0667 0.0667  plane waves:     486
 k-point 42 :   0.4667 0.0667 0.0667  plane waves:     483
 k-point 43 :   0.1333 0.1333 0.0667  plane waves:     497
 k-point 44 :   0.2000 0.1333 0.0667  plane waves:     494
 k-point 45 :   0.2667 0.1333 0.0667  plane waves:     494
 k-point 46 :   0.3333 0.1333 0.0667  plane waves:     492
 k-point 47 :   0.4000 0.1333 0.0667  plane waves:     484
 k-point 48 :   0.2000 0.2000 0.0667  plane waves:     489
 k-point 49 :   0.2667 0.2000 0.0667  plane waves:     491
 k-point 50 :   0.3333 0.2000 0.0667  plane waves:     490
 k-point 51 :   0.4000 0.2000 0.0667  plane waves:     488
 k-point 52 :   0.2667 0.2667 0.0667  plane waves:     492
 k-point 53 :   0.3333 0.2667 0.0667  plane waves:     484
 k-point 54 :   0.3333 0.3333 0.0667  plane waves:     486
 k-point 55 :   0.0000 0.0000 0.1333  plane waves:     512
 k-point 56 :   0.0667-0.0000 0.1333  plane waves:     510
 k-point 57 :   0.1333-0.0000 0.1333  plane waves:     500
 k-point 58 :   0.2000-0.0000 0.1333  plane waves:     495
 k-point 59 :   0.2667-0.0000 0.1333  plane waves:     488
 k-point 60 :   0.3333 0.0000 0.1333  plane waves:     492
 k-point 61 :   0.4000-0.0000 0.1333  plane waves:     483
 k-point 62 :   0.4667-0.0000 0.1333  plane waves:     487
 k-point 63 :   0.0667 0.0667 0.1333  plane waves:     501
 k-point 64 :   0.1333 0.0667 0.1333  plane waves:     500
 k-point 65 :   0.2000 0.0667 0.1333  plane waves:     494
 k-point 66 :   0.2667 0.0667 0.1333  plane waves:     492
 k-point 67 :   0.3333 0.0667 0.1333  plane waves:     490
 k-point 68 :   0.4000 0.0667 0.1333  plane waves:     487
 k-point 69 :   0.4667 0.0667 0.1333  plane waves:     485
 k-point 70 :   0.1333 0.1333 0.1333  plane waves:     495
 k-point 71 :   0.2000 0.1333 0.1333  plane waves:     494
 k-point 72 :   0.2667 0.1333 0.1333  plane waves:     493
 k-point 73 :   0.3333 0.1333 0.1333  plane waves:     493
 k-point 74 :   0.4000 0.1333 0.1333  plane waves:     488
 k-point 75 :   0.2000 0.2000 0.1333  plane waves:     491
 k-point 76 :   0.2667 0.2000 0.1333  plane waves:     493
 k-point 77 :   0.3333 0.2000 0.1333  plane waves:     489
 k-point 78 :   0.4000 0.2000 0.1333  plane waves:     488
 k-point 79 :   0.2667 0.2667 0.1333  plane waves:     495
 k-point 80 :   0.3333 0.2667 0.1333  plane waves:     492
 k-point 81 :   0.3333 0.3333 0.1333  plane waves:     489
 k-point 82 :   0.0000 0.0000 0.2000  plane waves:     512
 k-point 83 :   0.0667-0.0000 0.2000  plane waves:     503
 k-point 84 :   0.1333-0.0000 0.2000  plane waves:     503
 k-point 85 :   0.2000-0.0000 0.2000  plane waves:     496
 k-point 86 :   0.2667-0.0000 0.2000  plane waves:     493
 k-point 87 :   0.3333 0.0000 0.2000  plane waves:     490
 k-point 88 :   0.4000-0.0000 0.2000  plane waves:     486
 k-point 89 :   0.4667-0.0000 0.2000  plane waves:     487
 k-point 90 :   0.0667 0.0667 0.2000  plane waves:     501
 k-point 91 :   0.1333 0.0667 0.2000  plane waves:     497
 k-point 92 :   0.2000 0.0667 0.2000  plane waves:     493
 k-point 93 :   0.2667 0.0667 0.2000  plane waves:     494
 k-point 94 :   0.3333 0.0667 0.2000  plane waves:     490
 k-point 95 :   0.4000 0.0667 0.2000  plane waves:     487
 k-point 96 :   0.4667 0.0667 0.2000  plane waves:     486
 k-point 97 :   0.1333 0.1333 0.2000  plane waves:     495
 k-point 98 :   0.2000 0.1333 0.2000  plane waves:     496
 k-point 99 :   0.2667 0.1333 0.2000  plane waves:     494
 k-point ** :   0.3333 0.1333 0.2000  plane waves:     489
 k-point ** :   0.4000 0.1333 0.2000  plane waves:     491
 k-point ** :   0.2000 0.2000 0.2000  plane waves:     492
 k-point ** :   0.2667 0.2000 0.2000  plane waves:     494
 k-point ** :   0.3333 0.2000 0.2000  plane waves:     493
 k-point ** :   0.4000 0.2000 0.2000  plane waves:     490
 k-point ** :   0.2667 0.2667 0.2000  plane waves:     493
 k-point ** :   0.3333 0.2667 0.2000  plane waves:     492
 k-point ** :   0.3333 0.3333 0.2000  plane waves:     489
 k-point ** :   0.0000 0.0000 0.2667  plane waves:     512
 k-point ** :   0.0667-0.0000 0.2667  plane waves:     500
 k-point ** :   0.1333-0.0000 0.2667  plane waves:     504
 k-point ** :   0.2000-0.0000 0.2667  plane waves:     502
 k-point ** :   0.2667-0.0000 0.2667  plane waves:     496
 k-point ** :   0.3333 0.0000 0.2667  plane waves:     490
 k-point ** :   0.4000-0.0000 0.2667  plane waves:     492
 k-point ** :   0.4667-0.0000 0.2667  plane waves:     490
 k-point ** :   0.0667 0.0667 0.2667  plane waves:     503
 k-point ** :   0.1333 0.0667 0.2667  plane waves:     499
 k-point ** :   0.2000 0.0667 0.2667  plane waves:     493
 k-point ** :   0.2667 0.0667 0.2667  plane waves:     495
 k-point ** :   0.3333 0.0667 0.2667  plane waves:     491
 k-point ** :   0.4000 0.0667 0.2667  plane waves:     487
 k-point ** :   0.4667 0.0667 0.2667  plane waves:     486
 k-point ** :   0.1333 0.1333 0.2667  plane waves:     498
 k-point ** :   0.2000 0.1333 0.2667  plane waves:     496
 k-point ** :   0.2667 0.1333 0.2667  plane waves:     494
 k-point ** :   0.3333 0.1333 0.2667  plane waves:     490
 k-point ** :   0.4000 0.1333 0.2667  plane waves:     488
 k-point ** :   0.2000 0.2000 0.2667  plane waves:     492
 k-point ** :   0.2667 0.2000 0.2667  plane waves:     493
 k-point ** :   0.3333 0.2000 0.2667  plane waves:     493
 k-point ** :   0.4000 0.2000 0.2667  plane waves:     492
 k-point ** :   0.2667 0.2667 0.2667  plane waves:     489
 k-point ** :   0.3333 0.2667 0.2667  plane waves:     493
 k-point ** :   0.3333 0.3333 0.2667  plane waves:     495
 k-point ** :   0.0000 0.0000 0.3333  plane waves:     494
 k-point ** :   0.0667-0.0000 0.3333  plane waves:     503
 k-point ** :   0.1333-0.0000 0.3333  plane waves:     505
 k-point ** :   0.2000-0.0000 0.3333  plane waves:     505
 k-point ** :   0.2667-0.0000 0.3333  plane waves:     498
 k-point ** :   0.3333 0.0000 0.3333  plane waves:     491
 k-point ** :   0.4000-0.0000 0.3333  plane waves:     496
 k-point ** :   0.4667-0.0000 0.3333  plane waves:     489
 k-point ** :   0.0667 0.0667 0.3333  plane waves:     504
 k-point ** :   0.1333 0.0667 0.3333  plane waves:     500
 k-point ** :   0.2000 0.0667 0.3333  plane waves:     496
 k-point ** :   0.2667 0.0667 0.3333  plane waves:     494
 k-point ** :   0.3333 0.0667 0.3333  plane waves:     490
 k-point ** :   0.4000 0.0667 0.3333  plane waves:     489
 k-point ** :   0.4667 0.0667 0.3333  plane waves:     488
 k-point ** :   0.1333 0.1333 0.3333  plane waves:     499
 k-point ** :   0.2000 0.1333 0.3333  plane waves:     495
 k-point ** :   0.2667 0.1333 0.3333  plane waves:     492
 k-point ** :   0.3333 0.1333 0.3333  plane waves:     487
 k-point ** :   0.4000 0.1333 0.3333  plane waves:     486
 k-point ** :   0.2000 0.2000 0.3333  plane waves:     494
 k-point ** :   0.2667 0.2000 0.3333  plane waves:     495
 k-point ** :   0.3333 0.2000 0.3333  plane waves:     492
 k-point ** :   0.4000 0.2000 0.3333  plane waves:     489
 k-point ** :   0.2667 0.2667 0.3333  plane waves:     493
 k-point ** :   0.3333 0.2667 0.3333  plane waves:     492
 k-point ** :   0.3333 0.3333 0.3333  plane waves:     495
 k-point ** :   0.0000 0.0000 0.4000  plane waves:     494
 k-point ** :   0.0667-0.0000 0.4000  plane waves:     503
 k-point ** :   0.1333-0.0000 0.4000  plane waves:     504
 k-point ** :   0.2000-0.0000 0.4000  plane waves:     500
 k-point ** :   0.2667-0.0000 0.4000  plane waves:     502
 k-point ** :   0.3333 0.0000 0.4000  plane waves:     497
 k-point ** :   0.4000-0.0000 0.4000  plane waves:     490
 k-point ** :   0.4667-0.0000 0.4000  plane waves:     493
 k-point ** :   0.0667 0.0667 0.4000  plane waves:     505
 k-point ** :   0.1333 0.0667 0.4000  plane waves:     500
 k-point ** :   0.2000 0.0667 0.4000  plane waves:     498
 k-point ** :   0.2667 0.0667 0.4000  plane waves:     498
 k-point ** :   0.3333 0.0667 0.4000  plane waves:     492
 k-point ** :   0.4000 0.0667 0.4000  plane waves:     489
 k-point ** :   0.4667 0.0667 0.4000  plane waves:     490
 k-point ** :   0.1333 0.1333 0.4000  plane waves:     501
 k-point ** :   0.2000 0.1333 0.4000  plane waves:     496
 k-point ** :   0.2667 0.1333 0.4000  plane waves:     492
 k-point ** :   0.3333 0.1333 0.4000  plane waves:     488
 k-point ** :   0.4000 0.1333 0.4000  plane waves:     487
 k-point ** :   0.2000 0.2000 0.4000  plane waves:     492
 k-point ** :   0.2667 0.2000 0.4000  plane waves:     491
 k-point ** :   0.3333 0.2000 0.4000  plane waves:     488
 k-point ** :   0.4000 0.2000 0.4000  plane waves:     490
 k-point ** :   0.2667 0.2667 0.4000  plane waves:     493
 k-point ** :   0.3333 0.2667 0.4000  plane waves:     492
 k-point ** :   0.3333 0.3333 0.4000  plane waves:     498
 k-point ** :   0.0000 0.0000 0.4667  plane waves:     494
 k-point ** :   0.0667-0.0000 0.4667  plane waves:     503
 k-point ** :   0.1333-0.0000 0.4667  plane waves:     502
 k-point ** :   0.2000-0.0000 0.4667  plane waves:     506
 k-point ** :   0.2667-0.0000 0.4667  plane waves:     503
 k-point ** :   0.3333 0.0000 0.4667  plane waves:     495
 k-point ** :   0.4000-0.0000 0.4667  plane waves:     487
 k-point ** :   0.4667-0.0000 0.4667  plane waves:     496
 k-point ** :   0.0667 0.0667 0.4667  plane waves:     504
 k-point ** :   0.1333 0.0667 0.4667  plane waves:     500
 k-point ** :   0.2000 0.0667 0.4667  plane waves:     497
 k-point ** :   0.2667 0.0667 0.4667  plane waves:     494
 k-point ** :   0.3333 0.0667 0.4667  plane waves:     492
 k-point ** :   0.4000 0.0667 0.4667  plane waves:     494
 k-point ** :   0.4667 0.0667 0.4667  plane waves:     492
 k-point ** :   0.1333 0.1333 0.4667  plane waves:     498
 k-point ** :   0.2000 0.1333 0.4667  plane waves:     494
 k-point ** :   0.2667 0.1333 0.4667  plane waves:     493
 k-point ** :   0.3333 0.1333 0.4667  plane waves:     491
 k-point ** :   0.4000 0.1333 0.4667  plane waves:     487
 k-point ** :   0.2000 0.2000 0.4667  plane waves:     500
 k-point ** :   0.2667 0.2000 0.4667  plane waves:     492
 k-point ** :   0.3333 0.2000 0.4667  plane waves:     487
 k-point ** :   0.4000 0.2000 0.4667  plane waves:     480
 k-point ** :   0.2667 0.2667 0.4667  plane waves:     492
 k-point ** :   0.3333 0.2667 0.4667  plane waves:     492
 k-point ** :   0.3333 0.3333 0.4667  plane waves:     498

 maximum and minimum number of plane-waves per node :        90       71

 maximum number of plane-waves:       512
 maximum index in each direction: 
   IXMAX=    4   IYMAX=    4   IZMAX=    6
   IXMIN=   -4   IYMIN=   -4   IZMIN=   -7

 WARNING: aliasing errors must be expected set NGX to  18 to avoid them
 WARNING: aliasing errors must be expected set NGY to  18 to avoid them
 WARNING: aliasing errors must be expected set NGZ to  28 to avoid them
 aliasing errors are usually negligible using standard VASP settings
 and one can safely disregard these warnings

 real space projection operators:
  total allocation   :        680.91 KBytes
  max/ min on nodes  :        142.45         97.03


 parallel 3D FFT for wavefunctions:
    minimum data exchange during FFTs selected (reduces bandwidth)
 parallel 3D FFT for charge:
    minimum data exchange during FFTs selected (reduces bandwidth)


 total amount of memory used by VASP on root node    32918. kBytes
========================================================================

   base      :      30000. kBytes
   nonlr-proj:        260. kBytes
   fftplans  :        165. kBytes
   grid      :        239. kBytes
   one-center:         15. kBytes
   wavefun   :       2239. kBytes
 
     INWAV:  cpu time    0.00: real time    0.00
 Broyden mixing: mesh for mixing (old mesh)
   NGX =  9   NGY =  9   NGZ = 13
  (NGX  = 28   NGY  = 28   NGZ  = 48)
  gives a total of   1053 points

 initial charge density was supplied:
 charge density of overlapping atoms calculated
 number of electron      16.0000000 magnetization 
 keeping initial charge density in first step


--------------------------------------------------------------------------------------------------------


 Maximum index for non-local projection operator          508
 Maximum index for augmentation-charges         1295 (set IRDMAX)


--------------------------------------------------------------------------------------------------------


 First call to EWALD:  gamma=   0.590
 Maximum number of real-space cells 3x 3x 2
 Maximum number of reciprocal cells 3x 3x 4

 FEWALD executed in parallel
    FEWALD:  cpu time    0.00: real time    0.00


----------------------------------------- Iteration    1(   1)  ---------------------------------------


    POTLOK:  cpu time    0.00: real time    0.00
    SETDIJ:  cpu time    0.00: real time    0.00
     EDDAV:  cpu time    1.26: real time    1.27
       DOS:  cpu time    0.02: real time    0.02
    --------------------------------------------
      LOOP:  cpu time    1.29: real time    1.30

 eigenvalue-minimisations  :  5184
 total energy-change (2. order) : 0.6097446E+02  (-0.6634485E+03)
 number of electron      16.0000000 magnetization 
 augmentation part       16.0000000 magnetization 

 Free energy of the ion-electron system (eV)
  ---------------------------------------------------
  alpha Z        PSCENC =        67.60406997
  Ewald energy   TEWEN  =     -1115.65017199
  -Hartree energ DENC   =       -76.20531364
  -exchange      EXHF   =         0.00000000
  -V(xc)+E(xc)   XCENC  =       -63.74743008
  PAW double counting   =       925.32818268     -827.85498640
  entropy T*S    EENTRO =        -0.00078510
  eigenvalues    EBANDS =       241.74006263
  atomic energy  EATOM  =       909.76083116
  ---------------------------------------------------
  free energy    TOTEN  =        60.97445923 eV

  energy without entropy =       60.97524433  energy(sigma->0) =       60.97472093


--------------------------------------------------------------------------------------------------------




----------------------------------------- Iteration    1(   2)  ---------------------------------------


     EDDAV:  cpu time    1.39: real time    1.39
       DOS:  cpu time    0.03: real time    0.03
    --------------------------------------------
      LOOP:  cpu time    1.42: real time    1.43

 eigenvalue-minimisations  :  5844
 total energy-change (2. order) :-0.7916396E+02  (-0.7073571E+02)
 number of electron      16.0000000 magnetization 
 augmentation part       16.0000000 magnetization 

 Free energy of the ion-electron system (eV)
  ---------------------------------------------------
  alpha Z        PSCENC =        67.60406997
  Ewald energy   TEWEN  =     -1115.65017199
  -Hartree energ DENC   =       -76.20531364
  -exchange      EXHF   =         0.00000000
  -V(xc)+E(xc)   XCENC  =       -63.74743008
  PAW double counting   =       925.32818268     -827.85498640
  entropy T*S    EENTRO =        -0.00052213
  eigenvalues    EBANDS =       162.57584401
  atomic energy  EATOM  =       909.76083116
  ---------------------------------------------------
  free energy    TOTEN  =       -18.18949641 eV

  energy without entropy =      -18.18897429  energy(sigma->0) =      -18.18932237


--------------------------------------------------------------------------------------------------------




[...]
      6      10.0484      2.00000
      7      10.1759      2.00000
      8      10.2165      2.00000
      9      12.8989     -0.00001
     10      13.1460     -0.00000
     11      13.2521     -0.00000
     12      13.6171     -0.00000

 k-point   199 :       0.1333    0.0667    0.4667
  band No.  band energies     occupation 
      1       7.2030      2.00000
      2       7.4836      2.00000
      3       8.5801      2.00000
      4       8.7563      2.00000
      5       9.7719      2.00000
      6      10.0229      2.00000
      7      10.4819      2.00000
      8      10.5803      2.00000
      9      12.8832     -0.00003
     10      13.1520     -0.00000
     11      13.5437     -0.00000
     12      14.0500     -0.00000

 k-point   200 :       0.2000    0.0667    0.4667
  band No.  band energies     occupation 
      1       7.3188      2.00000
      2       7.5764      2.00000
      3       8.4918      2.00000
      4       8.7498      2.00000
      5       9.7813      2.00000
      6      10.0207      2.00000
      7      10.8762      2.00000
      8      11.0523      2.00000
      9      13.0068     -0.00000
     10      13.2474     -0.00000
     11      13.9247     -0.00000
     12      14.5501     -0.00000

 k-point   201 :       0.2667    0.0667    0.4667
  band No.  band energies     occupation 
      1       7.0742      2.00000
      2       7.2647      2.00000
      3       8.4400      2.00000
      4       8.6793      2.00000
      5      10.3906      2.00000
      6      10.5830      2.00000
      7      11.1699      2.00000
      8      11.4174      2.00000
      9      13.3680     -0.00000
     10      13.5536     -0.00000
     11      14.3723     -0.00000
     12      15.0724     -0.00000

 k-point   202 :       0.3333    0.0667    0.4667
  band No.  band energies     occupation 
      1       6.7878      2.00000
      2       6.9656      2.00000
      3       8.2345      2.00000
      4       8.4536      2.00000
      5      10.9630      2.00000
      6      11.2742      2.00000
      7      11.6749      2.00000
      8      11.8008      2.00000
      9      13.7727     -0.00000
     10      13.9617     -0.00000
     11      15.0063     -0.00000
     12      15.6810      0.00000

 k-point   203 :       0.4000    0.0667    0.4667
  band No.  band energies     occupation 
      1       6.5917      2.00000
      2       6.7688      2.00000
      3       8.0680      2.00000
      4       8.2709      2.00000
      5      11.0049      2.00000
      6      11.4883      2.00000
      7      12.2931      2.00141
      8      12.6558     -0.05404
      9      13.9835     -0.00000
     10      14.1592     -0.00000
     11      15.8027      0.00000
     12      16.3720      0.00000

 k-point   204 :       0.4667    0.0667    0.4667
  band No.  band energies     occupation 
      1       6.5235      2.00000
      2       6.7006      2.00000
      3       8.0075      2.00000
      4       8.2040      2.00000
      5      10.9993      2.00000
      6      11.5049      2.00000
      7      12.6084      0.21267
      8      13.0394     -0.00000
      9      14.0783     -0.00000
     10      14.1166     -0.00000
     11      16.2288      0.00000
     12      16.7204      0.00000

 k-point   205 :       0.1333    0.1333    0.4667
  band No.  band energies     occupation 
      1       7.4428      2.00000
      2       7.7214      2.00000
      3       8.4894      2.00000
      4       8.7415      2.00000
      5       9.5226      2.00000
      6       9.7702      2.00000
      7      10.8435      2.00000
      8      11.0154      2.00000
      9      13.0577     -0.00000
     10      13.2621     -0.00000
     11      13.8886     -0.00000
     12      14.4969     -0.00000

 k-point   206 :       0.2000    0.1333    0.4667
  band No.  band energies     occupation 
      1       7.3624      2.00000
      2       7.5122      2.00000
      3       8.7244      2.00000
      4       8.9596      2.00000
      5       9.5367      2.00000
      6       9.7494      2.00000
      7      11.0221      2.00000
      8      11.3049      2.00000
      9      13.5296     -0.00000
     10      13.6474     -0.00000
     11      14.3525     -0.00000
     12      15.0309     -0.00000

 k-point   207 :       0.2667    0.1333    0.4667
  band No.  band energies     occupation 
      1       7.1193      2.00000
      2       7.2686      2.00000
      3       8.5389      2.00000
      4       8.8063      2.00000
      5      10.1514      2.00000
      6      10.3398      2.00000
      7      11.1474      2.00000
      8      11.4192      2.00000
      9      13.9308     -0.00000
     10      14.1057     -0.00000
     11      15.1780     -0.00000
     12      15.7755      0.00000

 k-point   208 :       0.3333    0.1333    0.4667
  band No.  band energies     occupation 
      1       6.9118      2.00000
      2       7.0901      2.00000
      3       8.3188      2.00000
      4       8.5753      2.00000
      5      10.4398      2.00000
      6      10.8386      2.00000
      7      11.6467      2.00000
      8      11.7676      2.00000
      9      14.0043     -0.00000
     10      14.2641     -0.00000
     11      16.3083      0.00000
     12      16.7883      0.00000

 k-point   209 :       0.4000    0.1333    0.4667
  band No.  band energies     occupation 
      1       6.8016      2.00000
      2       6.9947      2.00000
      3       8.1968      2.00000
      4       8.4406      2.00000
      5      10.4337      2.00000
      6      10.9408      2.00000
      7      12.1898      2.00000
      8      12.3500      2.01406
      9      13.9356     -0.00000
     10      14.1273     -0.00000
     11      17.2597      0.00000
     12      17.6125      0.00000

 k-point   210 :       0.2000    0.2000    0.4667
  band No.  band energies     occupation 
      1       7.3500      2.00000
      2       7.3734      2.00000
      3       8.9498      2.00000
      4       9.1631      2.00000
      5       9.5118      2.00000
      6       9.6495      2.00000
      7      10.9572      2.00000
      8      11.3020      2.00000
      9      14.0222     -0.00000
     10      14.1455     -0.00000
     11      15.2616     -0.00000
     12      15.8260      0.00000

 k-point   211 :       0.2667    0.2000    0.4667
  band No.  band energies     occupation 
      1       7.2483      2.00000
      2       7.3441      2.00000
      3       8.7097      2.00000
      4       8.9797      2.00000
      5       9.8233      2.00000
      6      10.0792      2.00000
      7      11.0615      2.00000
      8      11.3257      2.00000
      9      14.0886     -0.00000
     10      14.3400     -0.00000
     11      16.6143      0.00000
     12      17.0679      0.00000

 k-point   212 :       0.3333    0.2000    0.4667
  band No.  band energies     occupation 
      1       7.1830      2.00000
      2       7.3514      2.00000
      3       8.5020      2.00000
      4       8.7564      2.00000
      5       9.9112      2.00000
      6      10.2935      2.00000
      7      11.5214      2.00000
      8      11.6544      2.00000
      9      13.9564     -0.00000
     10      14.1827     -0.00000
     11      18.0048      0.00000
     12      18.3660      0.00000

 k-point   213 :       0.4000    0.2000    0.4667
  band No.  band energies     occupation 
      1       7.1641      2.00000
      2       7.3593      2.00000
      3       8.4270      2.00000
      4       8.6678      2.00000
      5       9.8946      2.00000
      6      10.3229      2.00000
      7      11.8089      2.00000
      8      11.9077      2.00000
      9      13.8617     -0.00000
     10      14.0063     -0.00000
     11      18.7788      0.00000
     12      18.9494      0.00000

 k-point   214 :       0.2667    0.2667    0.4667
  band No.  band energies     occupation 
      1       7.4243      2.00000
      2       7.4882      2.00000
      3       8.7322      2.00000
      4       8.8934      2.00000
      5       9.7011      2.00000
      6       9.9639      2.00000
      7      11.1496      2.00000
      8      11.3672      2.00000
      9      13.9787     -0.00000
     10      14.2052     -0.00000
     11      18.2656      0.00000
     12      18.6649      0.00000

 k-point   215 :       0.3333    0.2667    0.4667
  band No.  band energies     occupation 
      1       7.5601      2.00000
      2       7.6749      2.00000
      3       8.6064      2.00000
      4       8.6281      2.00000
      5       9.7615      2.00000
      6       9.9238      2.00000
      7      11.3760      2.00000
      8      11.5261      2.00000
      9      13.8139     -0.00000
     10      13.9383     -0.00000
     11      19.7619      0.00000
     12      20.0106      0.00000

 k-point   216 :       0.3333    0.3333    0.4667
  band No.  band energies     occupation 
      1       7.8702      2.00000
      2       7.8702      2.00000
      3       8.3267      2.00000
      4       8.5513      2.00000
      5       9.8405      2.00000
      6       9.8405      2.00000
      7      11.3027      2.00000
      8      11.4615      2.00000
      9      13.7735     -0.00000
     10      13.7735     -0.00000
     11      20.9328      0.00000
     12      20.9328      0.00000


--------------------------------------------------------------------------------------------------------


 soft charge-density along one line, spin component           1
         0         1         2         3         4         5         6         7         8         9
 total charge-density along one line
 
 pseudopotential strength for first ion, spin component:           1
  0.240  -0.000  -0.000   0.000  -0.000  -0.083  -0.000  -0.000
 -0.000   0.234  -0.000  -0.000  -0.000  -0.000  -0.088  -0.000
 -0.000  -0.000   0.224  -0.000   0.000  -0.000  -0.000  -0.098
  0.000  -0.000  -0.000   0.234   0.000   0.000  -0.000  -0.000
 -0.000  -0.000   0.000   0.000   0.240  -0.000  -0.000   0.000
 -0.083  -0.000  -0.000   0.000  -0.000  -0.372  -0.000  -0.000
 -0.000  -0.088  -0.000  -0.000  -0.000  -0.000  -0.377  -0.000
 -0.000  -0.000  -0.098  -0.000   0.000  -0.000  -0.000  -0.387
  0.000  -0.000  -0.000  -0.088   0.000   0.000  -0.000  -0.000
 -0.000  -0.000   0.000   0.000  -0.083  -0.000  -0.000   0.000
  0.000  -0.000   0.003  -0.000  -0.000   0.000  -0.000   0.003
 -0.000   0.000  -0.005   0.000   0.000  -0.000   0.000  -0.005
  0.000  -0.000  -0.000   0.000  -0.002   0.000  -0.000  -0.000
  0.000   0.000  -0.000   0.000   0.000   0.000   0.000  -0.000
 -0.002   0.000  -0.000   0.000   0.000  -0.002   0.000  -0.000
  0.000  -0.000  -0.000   0.000  -0.002   0.000  -0.000  -0.000
  0.000   0.000  -0.000   0.000   0.000   0.000   0.000  -0.000
 -0.002   0.000  -0.000   0.000   0.000  -0.002   0.000  -0.000
 total augmentation occupancy for first ion, spin component:           1
  1.995   0.000  -0.000  -0.000  -0.000  -1.882  -0.000   0.000  -0.000   0.000   0.000   0.000  -0.000   0.000   0.059   0.000
  0.000   1.983   0.000   0.000   0.000  -0.000  -1.849  -0.000  -0.000   0.000  -0.000  -0.000   0.000   0.000   0.000   0.000
 -0.000   0.000   1.921  -0.000   0.000   0.000  -0.000  -1.986  -0.000  -0.000  -0.058  -0.001   0.000   0.000  -0.000  -0.000
 -0.000   0.000   0.000   1.983  -0.000   0.000  -0.000   0.000  -1.849  -0.000   0.000   0.000  -0.000   0.000   0.000   0.000
 -0.000   0.000   0.000   0.000   1.995   0.000   0.000  -0.000  -0.000  -1.882  -0.000  -0.000   0.059   0.000   0.000  -0.001
 -1.882   0.000   0.000   0.000   0.000   3.154  -0.000  -0.000  -0.000  -0.000  -0.000  -0.000   0.000   0.000  -0.081   0.000
 -0.000  -1.849   0.000  -0.000  -0.000  -0.000   3.109  -0.000   0.000  -0.000  -0.000   0.000   0.000  -0.000  -0.000   0.000
  0.000  -0.000  -1.986   0.000  -0.000  -0.000   0.000   3.418  -0.000   0.000   0.072   0.001  -0.000   0.000   0.000  -0.000
 -0.000  -0.000   0.000  -1.849   0.000  -0.000   0.000  -0.000   3.109   0.000   0.000  -0.000   0.000   0.000   0.000   0.000
  0.000   0.000  -0.000  -0.000  -1.882  -0.000   0.000   0.000   0.000   3.154   0.000   0.000  -0.081   0.000  -0.000  -0.001
  0.000  -0.000  -0.058   0.000  -0.000  -0.000   0.000   0.072   0.000   0.000   1.757   0.056   0.000   0.000  -0.000   0.000
  0.000   0.000  -0.001  -0.000  -0.000  -0.000   0.000   0.001   0.000   0.000   0.056   0.002  -0.000  -0.000   0.000   0.000
 -0.000   0.000   0.000  -0.000   0.059   0.000  -0.000  -0.000   0.000  -0.081   0.000  -0.000   0.374  -0.000   0.000  -0.003
  0.000   0.000   0.000   0.000  -0.000   0.000   0.000   0.000  -0.000   0.000   0.000   0.000  -0.000   0.400  -0.000   0.000
  0.059  -0.000  -0.000   0.000   0.000  -0.081  -0.000   0.000  -0.000  -0.000   0.000   0.000   0.000   0.000   0.374  -0.000
  0.000   0.000  -0.000   0.000  -0.001   0.000   0.000  -0.000   0.000  -0.001   0.000   0.000  -0.003  -0.000  -0.000   0.000
 -0.000   0.000   0.000   0.000   0.000   0.000  -0.000   0.000  -0.000  -0.000   0.000   0.000  -0.000  -0.003   0.000  -0.000
 -0.001   0.000   0.000   0.000  -0.000  -0.001   0.000   0.000   0.000  -0.000   0.000  -0.000  -0.000   0.000  -0.003   0.000


------------------------ aborting loop because EDIFF is reached ----------------------------------------


 


 total charge     
 
# of ion     s       p       d       tot
----------------------------------------
  1        0.638   0.814   6.599   8.051
  2        0.638   0.814   6.599   8.051
------------------------------------------------
tot        1.275   1.627  13.198  16.101
 
    CHARGE:  cpu time    0.07: real time    0.07
    FORLOC:  cpu time    0.00: real time    0.00
    FORNL :  cpu time    0.38: real time    0.38
    STRESS:  cpu time    1.17: real time    1.17
    FORCOR:  cpu time    0.00: real time    0.00
    FORHAR:  cpu time    0.00: real time    0.00
    MIXING:  cpu time    0.00: real time    0.00
    OFIELD:  cpu time    0.00: real time    0.00

  DFT-D2 method for vdW energy calculation
  -------------------------------------------------------------------

  Parameters of vdW forcefield:
         C6(Jnm^6/mol)     R0(A)
   -----------------------------
   Ru       4.168          1.639

  IVDW =   1
  VDW_RADIUS =    40.000 A
  VDW_S6 =     0.750
  VDW_SR =     1.000
  VDW_D =    20.000
  LVDW_EWALD = F

  Number of pair interactions contributing to vdW energy:   29652
  Edisp (eV):   -0.23950
    FORVDW:  cpu time    0.01: real time    0.01

  FORCE on cell =-STRESS in cart. coord.  units (eV):
  Direction    XX          YY          ZZ          XY          YZ          ZX
  --------------------------------------------------------------------------------------
  Alpha Z    67.60407    67.60407    67.60407
  Ewald    -376.79161  -376.79160  -362.06773    -0.00000    -0.00000    -0.00000
  Hartree    17.81006    17.81006    21.65948    -0.00000     0.00000     0.00000
  E(xc)     -76.15477   -76.15478   -76.23528    -0.00001    -0.00000    -0.00000
  Local      63.45225    63.45218    45.97123    -0.00005    -0.00000    -0.00000
  n-local    26.96548    24.01578    27.05719   -13.54946     2.34043     2.43208
  augment    90.25666    90.25675    89.46525     0.00008    -0.00000    -0.00000
  Kinetic   191.18498   186.17548   186.87034    -6.25044    -2.02091    -0.50949
  Fock        0.00000     0.00000     0.00000     0.00000     0.00000     0.00000
  vdW        -0.30762    -0.30762    -0.33532     0.00000     0.00000    -0.00000
  -------------------------------------------------------------------------------------
  Total       0.03990     0.03990    -0.01077     0.00000    -0.00000     0.00000
  in kB       2.35507     2.35507    -0.63549     0.00000    -0.00000     0.00000
  external pressure =        1.36 kB  Pullay stress =        0.00 kB


 VOLUME and BASIS-vectors are now :
 -----------------------------------------------------------------------------
  energy-cutoff  :      400.00
  volume of cell :       27.15
      direct lattice vectors                 reciprocal lattice vectors
     2.705800057  0.000000000  0.000000000     0.369576458  0.213375067  0.000000000
    -1.352900028  2.343291586  0.000000000     0.000000000  0.426750135  0.000000000
     0.000000000  0.000000000  4.281599998     0.000000000  0.000000000  0.233557549

  length of vectors
     2.705800057  2.705800056  4.281599998     0.426750135  0.426750135  0.233557549


 FORCES acting on ions
    electron-ion (+dipol)            ewald-force                    non-local-force                 convergence-correction
 -----------------------------------------------------------------------------------------------
   0.107E-05 -.183E-05 -.556E-08   -.177E-05 -.215E-05 0.191E-07   -.139E-16 -.139E-16 0.867E-18   0.474E-08 -.710E-09 -.145E-09
   0.289E-05 0.183E-05 0.557E-08   0.177E-05 0.215E-05 -.191E-07   -.867E-17 0.139E-16 -.867E-18   -.620E-08 0.710E-09 0.145E-09
 -----------------------------------------------------------------------------------------------
   0.396E-05 -.349E-12 0.103E-10   0.327E-14 0.290E-14 0.000E+00   -.226E-16 0.000E+00 0.000E+00   -.145E-08 0.338E-13 -.175E-13
 
 
 POSITION                                       TOTAL-FORCE (eV/Angst)
 -----------------------------------------------------------------------------------
     -0.00000      1.56219      1.07040         0.000000     -0.000000     -0.000000
      1.35290      0.78110      3.21120        -0.000000      0.000000      0.000000
 -----------------------------------------------------------------------------------
    total drift:                                0.000004     -0.000000      0.000000


--------------------------------------------------------------------------------------------------------



  FREE ENERGIE OF THE ION-ELECTRON SYSTEM (eV)
  ---------------------------------------------------
  free  energy   TOTEN  =       -18.75200372 eV

  energy  without entropy=      -18.75066985  energy(sigma->0) =      -18.75155910
 


--------------------------------------------------------------------------------------------------------


    POTLOK:  cpu time    0.01: real time    0.01


--------------------------------------------------------------------------------------------------------


 Quasi-Newton relaxation of ions (Broydens 2nd method)
  g(Force)  = 0.373E-45   g(Stress)= 0.159E-04

 Reset! Starting new Quasi-Newton update for ions 


--------------------------------------------------------------------------------------------------------


  
 reached required accuracy - stopping structural energy minimisation
 writing wavefunctions
     LOOP+:  cpu time   15.82: real time   16.44
    4ORBIT:  cpu time    0.00: real time    0.00
 


 total charge     
 
# of ion     s       p       d       tot
----------------------------------------
  1        0.638   0.814   6.599   8.051
  2        0.638   0.814   6.599   8.051
------------------------------------------------
tot        1.275   1.627  13.198  16.101
 

 total amount of memory used by VASP on root node    32918. kBytes
========================================================================

   base      :      30000. kBytes
   nonlr-proj:        260. kBytes
   fftplans  :        165. kBytes
   grid      :        239. kBytes
   one-center:         15. kBytes
   wavefun   :       2239. kBytes
 
  
  
 General timing and accounting informations for this job:
 ========================================================
  
                  Total CPU time used (sec):       17.102
                            User time (sec):       16.808
                          System time (sec):        0.294
                         Elapsed time (sec):       18.436
  
                   Maximum memory used (kb):       36840.
                   Average memory used (kb):           0.
  
                          Minor page faults:        14972
                          Major page faults:            6
                 Voluntary context switches:         6703
