 vasp.5.3.5 31Mar14 (build Apr 25 2014 16:28:52) complex                        
  
 executed on             LinuxIFC date 2019.02.08  10:54:30
 running on   12 total cores
 distrk:  each k-point on   12 cores,    1 groups
 distr:  one band on NCORES_PER_BAND=   6 cores,    2 groups


--------------------------------------------------------------------------------------------------------


 INCAR:
 POTCAR:    PAW_PBE Ag 02Apr2005                  
 POTCAR:    PAW_PBE Ag 02Apr2005                  
  local pseudopotential read in
  partial core-charges read in
  partial kinetic energy density read in
  atomic valenz-charges read in
  non local Contribution for L=           2  read in
    real space projection operators read in
  non local Contribution for L=           2  read in
    real space projection operators read in
  non local Contribution for L=           0  read in
    real space projection operators read in
  non local Contribution for L=           0  read in
    real space projection operators read in
  non local Contribution for L=           1  read in
    real space projection operators read in
  non local Contribution for L=           1  read in
    real space projection operators read in
    PAW grid and wavefunctions read in
 
   number of l-projection  operators is LMAX  =           6
   number of lm-projection operators is LMMAX =          18
 

 ----------------------------------------------------------------------------- 
|                                                                             |
|  ADVICE TO THIS USER RUNNING 'VASP/VAMP'   (HEAR YOUR MASTER'S VOICE ...):  |
|                                                                             |
|      You have a (more or less) 'small supercell' and for smaller cells      |
|      it is recommended  to use the reciprocal-space projection scheme!      |
|      The real space optimization is not  efficient for small cells and it   |
|      is also less accurate ...                                              |
|      Therefore set LREAL=.FALSE. in the  INCAR file                         |
|                                                                             |
 ----------------------------------------------------------------------------- 

 Optimization of the real space projectors (new method)

 maximal supplied QI-value         = 15.12
 optimisation between [QCUT,QGAM] = [ 13.45, 27.06] = [ 50.69,205.06] Ry 
 Optimized for a Real-space Cutoff    1.40 Angstroem

   l    n(q)    QCUT    max X(q) W(low)/X(q) W(high)/X(q)  e(spline) 
   2     10    13.455    53.897    0.14E-03    0.57E-05    0.46E-06
   2     10    13.455    52.416    0.14E-03    0.59E-05    0.47E-06
   0     11    13.455   122.045    0.39E-04    0.60E-05    0.60E-06
   0     11    13.455    73.629    0.37E-04    0.57E-05    0.58E-06
   1     11    13.455    15.255    0.12E-03    0.22E-03    0.63E-06
   1     11    13.455     9.562    0.98E-04    0.18E-03    0.51E-06
  PAW_PBE Ag 02Apr2005                  :
 energy of atom  1       EATOM=-1037.2675
 kinetic energy error for atom=    0.0011 (will be added to EATOM!!)
 
 
 POSCAR: Ag                                      
  positions in direct lattice
  velocities in cartesian coordinates
 exchange correlation table for  LEXCH =        8
   RHO(1)=    0.500       N(1)  =     2000
   RHO(2)=  100.500       N(2)  =     4000
 


--------------------------------------------------------------------------------------------------------


 ion  position               nearest neighbor table
   1  0.000  0.000  0.000-   2 2.92   3 2.92   4 2.92   2 2.92   3 2.92   2 2.92   4 2.92   2 2.92
                             3 2.92   4 2.92   3 2.92   4 2.92
   2  0.000  0.500  0.500-   1 2.92   3 2.92   4 2.92   1 2.92   4 2.92   1 2.92   3 2.92   1 2.92
                             3 2.92   4 2.92   4 2.92   3 2.92
   3  0.500  0.000  0.500-   1 2.92   2 2.92   4 2.92   1 2.92   4 2.92   2 2.92   4 2.92   4 2.92
                             1 2.92   2 2.92   1 2.92   2 2.92
   4  0.500  0.500  0.000-   1 2.92   2 2.92   3 2.92   2 2.92   3 2.92   1 2.92   3 2.92   3 2.92
                             1 2.92   2 2.92   2 2.92   1 2.92
 
  LATTYP: Found a simple cubic cell.
 ALAT       =     4.1259705704
  
  Lattice vectors:
  
 A1 = (   4.1259705704,   0.0000000000,   0.0000000000)
 A2 = (   0.0000000000,   4.1259705704,   0.0000000000)
 A3 = (   0.0000000000,   0.0000000000,   4.1259705704)


Analysis of symmetry for initial positions (statically):
=====================================================================
 Subroutine PRICEL returns following result:
 
  LATTYP: Found a face centered cubic cell.
 ALAT       =     4.1259705704
  
  Lattice vectors:
  
 A1 = (   2.0629852852,   2.0629852852,   0.0000000000)
 A2 = (   2.0629852852,   0.0000000000,  -2.0629852852)
 A3 = (   0.0000000000,   2.0629852852,  -2.0629852852)
 
   4 primitive cells build up your supercell.
 

 Routine SETGRP: Setting up the symmetry group for a 
 simple cubic supercell.


 Subroutine GETGRP returns: Found 48 space group operations
 (whereof 48 operations were pure point group operations)
 out of a pool of 48 trial point group operations.


The static configuration has the point symmetry O_h .


Analysis of symmetry for dynamics (positions and initial velocities):
=====================================================================
 Subroutine PRICEL returns following result:
 
  LATTYP: Found a face centered cubic cell.
 ALAT       =     4.1259705704
  
  Lattice vectors:
  
 A1 = (   2.0629852852,   2.0629852852,   0.0000000000)
 A2 = (   2.0629852852,   0.0000000000,  -2.0629852852)
 A3 = (   0.0000000000,   2.0629852852,  -2.0629852852)
 
   4 primitive cells build up your supercell.
 

 Routine SETGRP: Setting up the symmetry group for a 
 simple cubic supercell.


 Subroutine GETGRP returns: Found 48 space group operations
 (whereof 48 operations were pure point group operations)
 out of a pool of 48 trial point group operations.


The dynamic configuration has the point symmetry O_h .
 
 
 KPOINTS: K-points                                

Automatic generation of k-mesh.
Space group operators:
 irot       det(A)        alpha          n_x          n_y          n_z        tau_x        tau_y        tau_z
    1     1.000000     0.000001     1.000000     0.000000     0.000000     0.000000     0.000000     0.000000
    2    -1.000000     0.000001     1.000000     0.000000     0.000000     0.000000     0.000000     0.000000
    3     1.000000   120.000000    -0.577350    -0.577350    -0.577350     0.000000     0.000000     0.000000
    4    -1.000000   120.000000    -0.577350    -0.577350    -0.577350     0.000000     0.000000     0.000000
    5     1.000000   120.000000     0.577350     0.577350     0.577350     0.000000     0.000000     0.000000
    6    -1.000000   120.000000     0.577350     0.577350     0.577350     0.000000     0.000000     0.000000
    7     1.000000    90.000000     0.000000     0.000000    -1.000000     0.000000     0.000000     0.000000
    8    -1.000000    90.000000     0.000000     0.000000    -1.000000     0.000000     0.000000     0.000000
    9     1.000000   180.000000     0.000000     0.707107     0.707107     0.000000     0.000000     0.000000
   10    -1.000000   180.000000     0.000000     0.707107     0.707107     0.000000     0.000000     0.000000
   11     1.000000    90.000000     0.000000     1.000000     0.000000     0.000000     0.000000     0.000000
   12    -1.000000    90.000000     0.000000     1.000000     0.000000     0.000000     0.000000     0.000000
   13     1.000000   180.000000     0.000000     0.000000     1.000000     0.000000     0.000000     0.000000
   14    -1.000000   180.000000     0.000000     0.000000     1.000000     0.000000     0.000000     0.000000
   15     1.000000   120.000000    -0.577350     0.577350     0.577350     0.000000     0.000000     0.000000
   16    -1.000000   120.000000    -0.577350     0.577350     0.577350     0.000000     0.000000     0.000000
   17     1.000000   120.000000    -0.577350     0.577350    -0.577350     0.000000     0.000000     0.000000
   18    -1.000000   120.000000    -0.577350     0.577350    -0.577350     0.000000     0.000000     0.000000
   19     1.000000    90.000000     0.000000     0.000000     1.000000     0.000000     0.000000     0.000000
   20    -1.000000    90.000000     0.000000     0.000000     1.000000     0.000000     0.000000     0.000000
   21     1.000000    90.000000    -1.000000     0.000000     0.000000     0.000000     0.000000     0.000000
   22    -1.000000    90.000000    -1.000000     0.000000     0.000000     0.000000     0.000000     0.000000
   23     1.000000   180.000000     0.707107     0.000000     0.707107     0.000000     0.000000     0.000000
   24    -1.000000   180.000000     0.707107     0.000000     0.707107     0.000000     0.000000     0.000000
   25     1.000000   120.000000     0.577350    -0.577350     0.577350     0.000000     0.000000     0.000000
   26    -1.000000   120.000000     0.577350    -0.577350     0.577350     0.000000     0.000000     0.000000
   27     1.000000   120.000000    -0.577350    -0.577350     0.577350     0.000000     0.000000     0.000000
   28    -1.000000   120.000000    -0.577350    -0.577350     0.577350     0.000000     0.000000     0.000000
   29     1.000000   180.000000     1.000000     0.000000     0.000000     0.000000     0.000000     0.000000
   30    -1.000000   180.000000     1.000000     0.000000     0.000000     0.000000     0.000000     0.000000
   31     1.000000    90.000000     0.000000    -1.000000     0.000000     0.000000     0.000000     0.000000
   32    -1.000000    90.000000     0.000000    -1.000000     0.000000     0.000000     0.000000     0.000000
   33     1.000000   180.000000     0.707107     0.707107     0.000000     0.000000     0.000000     0.000000
   34    -1.000000   180.000000     0.707107     0.707107     0.000000     0.000000     0.000000     0.000000
   35     1.000000    90.000000     1.000000     0.000000     0.000000     0.000000     0.000000     0.000000
   36    -1.000000    90.000000     1.000000     0.000000     0.000000     0.000000     0.000000     0.000000
   37     1.000000   120.000000     0.577350    -0.577350    -0.577350     0.000000     0.000000     0.000000
   38    -1.000000   120.000000     0.577350    -0.577350    -0.577350     0.000000     0.000000     0.000000
   39     1.000000   180.000000     0.000000     1.000000     0.000000     0.000000     0.000000     0.000000
   40    -1.000000   180.000000     0.000000     1.000000     0.000000     0.000000     0.000000     0.000000
   41     1.000000   120.000000     0.577350     0.577350    -0.577350     0.000000     0.000000     0.000000
   42    -1.000000   120.000000     0.577350     0.577350    -0.577350     0.000000     0.000000     0.000000
   43     1.000000   180.000000     0.000000    -0.707107     0.707107     0.000000     0.000000     0.000000
   44    -1.000000   180.000000     0.000000    -0.707107     0.707107     0.000000     0.000000     0.000000
   45     1.000000   180.000000     0.707107    -0.707107     0.000000     0.000000     0.000000     0.000000
   46    -1.000000   180.000000     0.707107    -0.707107     0.000000     0.000000     0.000000     0.000000
   47     1.000000   180.000000     0.707107     0.000000    -0.707107     0.000000     0.000000     0.000000
   48    -1.000000   180.000000     0.707107     0.000000    -0.707107     0.000000     0.000000     0.000000
 
 Subroutine IBZKPT returns following result:
 ===========================================
 
 Found     56 irreducible k-points:
 
 Following reciprocal coordinates:
            Coordinates               Weight
  0.000000  0.000000  0.000000      1.000000
  0.090909  0.000000  0.000000      6.000000
  0.181818  0.000000  0.000000      6.000000
  0.272727  0.000000  0.000000      6.000000
  0.363636  0.000000  0.000000      6.000000
  0.454545  0.000000  0.000000      6.000000
  0.090909  0.090909  0.000000     12.000000
  0.181818  0.090909  0.000000     24.000000
  0.272727  0.090909  0.000000     24.000000
  0.363636  0.090909  0.000000     24.000000
  0.454545  0.090909  0.000000     24.000000
  0.181818  0.181818  0.000000     12.000000
  0.272727  0.181818  0.000000     24.000000
  0.363636  0.181818  0.000000     24.000000
  0.454545  0.181818  0.000000     24.000000
  0.272727  0.272727  0.000000     12.000000
  0.363636  0.272727  0.000000     24.000000
  0.454545  0.272727  0.000000     24.000000
  0.363636  0.363636  0.000000     12.000000
  0.454545  0.363636  0.000000     24.000000
  0.454545  0.454545  0.000000     12.000000
  0.090909  0.090909  0.090909      8.000000
  0.181818  0.090909  0.090909     24.000000
  0.272727  0.090909  0.090909     24.000000
  0.363636  0.090909  0.090909     24.000000
  0.454545  0.090909  0.090909     24.000000
  0.181818  0.181818  0.090909     24.000000
  0.272727  0.181818  0.090909     48.000000
  0.363636  0.181818  0.090909     48.000000
  0.454545  0.181818  0.090909     48.000000
  0.272727  0.272727  0.090909     24.000000
  0.363636  0.272727  0.090909     48.000000
  0.454545  0.272727  0.090909     48.000000
  0.363636  0.363636  0.090909     24.000000
  0.454545  0.363636  0.090909     48.000000
  0.454545  0.454545  0.090909     24.000000
  0.181818  0.181818  0.181818      8.000000
  0.272727  0.181818  0.181818     24.000000
  0.363636  0.181818  0.181818     24.000000
  0.454545  0.181818  0.181818     24.000000
  0.272727  0.272727  0.181818     24.000000
  0.363636  0.272727  0.181818     48.000000
  0.454545  0.272727  0.181818     48.000000
  0.363636  0.363636  0.181818     24.000000
  0.454545  0.363636  0.181818     48.000000
  0.454545  0.454545  0.181818     24.000000
  0.272727  0.272727  0.272727      8.000000
  0.363636  0.272727  0.272727     24.000000
  0.454545  0.272727  0.272727     24.000000
  0.363636  0.363636  0.272727     24.000000
  0.454545  0.363636  0.272727     48.000000
  0.454545  0.454545  0.272727     24.000000
  0.363636  0.363636  0.363636      8.000000
  0.454545  0.363636  0.363636     24.000000
  0.454545  0.454545  0.363636     24.000000
  0.454545  0.454545  0.454545      8.000000
 
 Following cartesian coordinates:
            Coordinates               Weight
  0.000000  0.000000  0.000000      1.000000
  0.022033  0.000000  0.000000      6.000000
  0.044067  0.000000  0.000000      6.000000
  0.066100  0.000000  0.000000      6.000000
  0.088134  0.000000  0.000000      6.000000
  0.110167  0.000000  0.000000      6.000000
  0.022033  0.022033  0.000000     12.000000
  0.044067  0.022033  0.000000     24.000000
  0.066100  0.022033  0.000000     24.000000
  0.088134  0.022033  0.000000     24.000000
  0.110167  0.022033  0.000000     24.000000
  0.044067  0.044067  0.000000     12.000000
  0.066100  0.044067  0.000000     24.000000
  0.088134  0.044067  0.000000     24.000000
  0.110167  0.044067  0.000000     24.000000
  0.066100  0.066100  0.000000     12.000000
  0.088134  0.066100  0.000000     24.000000
  0.110167  0.066100  0.000000     24.000000
  0.088134  0.088134  0.000000     12.000000
  0.110167  0.088134  0.000000     24.000000
  0.110167  0.110167  0.000000     12.000000
  0.022033  0.022033  0.022033      8.000000
  0.044067  0.022033  0.022033     24.000000
  0.066100  0.022033  0.022033     24.000000
  0.088134  0.022033  0.022033     24.000000
  0.110167  0.022033  0.022033     24.000000
  0.044067  0.044067  0.022033     24.000000
  0.066100  0.044067  0.022033     48.000000
  0.088134  0.044067  0.022033     48.000000
  0.110167  0.044067  0.022033     48.000000
  0.066100  0.066100  0.022033     24.000000
  0.088134  0.066100  0.022033     48.000000
  0.110167  0.066100  0.022033     48.000000
  0.088134  0.088134  0.022033     24.000000
  0.110167  0.088134  0.022033     48.000000
  0.110167  0.110167  0.022033     24.000000
  0.044067  0.044067  0.044067      8.000000
  0.066100  0.044067  0.044067     24.000000
  0.088134  0.044067  0.044067     24.000000
  0.110167  0.044067  0.044067     24.000000
  0.066100  0.066100  0.044067     24.000000
  0.088134  0.066100  0.044067     48.000000
  0.110167  0.066100  0.044067     48.000000
  0.088134  0.088134  0.044067     24.000000
  0.110167  0.088134  0.044067     48.000000
  0.110167  0.110167  0.044067     24.000000
  0.066100  0.066100  0.066100      8.000000
  0.088134  0.066100  0.066100     24.000000
  0.110167  0.066100  0.066100     24.000000
  0.088134  0.088134  0.066100     24.000000
  0.110167  0.088134  0.066100     48.000000
  0.110167  0.110167  0.066100     24.000000
  0.088134  0.088134  0.088134      8.000000
  0.110167  0.088134  0.088134     24.000000
  0.110167  0.110167  0.088134     24.000000
  0.110167  0.110167  0.110167      8.000000
 


--------------------------------------------------------------------------------------------------------




 Dimension of arrays:
   k-points           NKPTS =     56   k-points in BZ     NKDIM =     56   number of bands    NBANDS=     26
   number of dos      NEDOS =   3000   number of ions     NIONS =      4
   non local maximal  LDIM  =      6   non local SUM 2l+1 LMDIM =     18
   total plane-waves  NPLWV =  21952
   max r-space proj   IRMAX =   3661   max aug-charges    IRDMAX=  15565
   dimension x,y,z NGX =    28 NGY =   28 NGZ =   28
   dimension x,y,z NGXF=    56 NGYF=   56 NGZF=   56
   support grid    NGXF=    56 NGYF=   56 NGZF=   56
   ions per type =               4
 NGX,Y,Z   is equivalent  to a cutoff of  11.28, 11.28, 11.28 a.u.
 NGXF,Y,Z  is equivalent  to a cutoff of  22.56, 22.56, 22.56 a.u.


 I would recommend the setting:
   dimension x,y,z NGX =    27 NGY =   27 NGZ =   27
 SYSTEM =  Bulk                                    
 POSCAR =  Ag                                      

 Startparameter for this run:
   NWRITE =      0    write-flag & timer
   PREC   = normal    normal or accurate (medium, high low for compatibility)
   ISTART =      0    job   : 0-new  1-cont  2-samecut
   ICHARG =      2    charge: 1-file 2-atom 10-const
   ISPIN  =      1    spin polarized calculation?
   LNONCOLLINEAR =      F non collinear calculations
   LSORBIT =      F    spin-orbit coupling
   INIWAV =      1    electr: 0-lowe 1-rand  2-diag
   LASPH  =      F    aspherical Exc in radial PAW
   METAGGA=      F    non-selfconsistent MetaGGA calc.

 Electronic Relaxation 1
   ENCUT  =  700.0 eV  51.45 Ry    7.17 a.u.   8.90  8.90  8.90*2*pi/ulx,y,z
   ENINI  =  700.0     initial cutoff
   ENAUG  =  412.5 eV  augmentation charge cutoff
   NELM   =     80;   NELMIN=  2; NELMDL=  0     # of ELM steps 
   EDIFF  = 0.1E-04   stopping-criterion for ELM
   LREAL  =      T    real-space projection
   NLSPLINE    = F    spline interpolate recip. space projectors
   LCOMPAT=      F    compatible to vasp.4.4
   GGA_COMPAT  = T    GGA compatible to vasp.4.4-vasp.4.6
   LMAXPAW     = -100 max onsite density
   LMAXMIX     =    2 max onsite mixed and CHGCAR
   VOSKOWN=      0    Vosko Wilk Nusair interpolation
   ROPT   =   -0.00050
 Ionic relaxation
   EDIFFG = -.1E-01   stopping-criterion for IOM
   NSW    =      1    number of steps for IOM
   NBLOCK =      1;   KBLOCK =      1    inner block; outer block 
   IBRION =      2    ionic relax: 0-MD 1-quasi-New 2-CG
   NFREE  =      1    steps in history (QN), initial steepest desc. (CG)
   ISIF   =      3    stress and relaxation
   IWAVPR =     11    prediction:  0-non 1-charg 2-wave 3-comb
   ISYM   =      2    0-nonsym 1-usesym 2-fastsym
   LCORR  =      T    Harris-Foulkes like correction to forces

   POTIM  = 0.1000    time-step for ionic-motion
   TEIN   =    0.0    initial temperature
   TEBEG  =    0.0;   TEEND  =   0.0 temperature during run
   SMASS  =  -3.00    Nose mass-parameter (am)
   estimated Nose-frequenzy (Omega)   =  0.10E-29 period in steps =****** mass=  -0.389E-27a.u.
   SCALEE = 1.0000    scale energy and forces
   NPACO  =    256;   APACO  = 16.0  distance and # of slots for P.C.
   PSTRESS=    0.0 pullay stress

  Mass of Ions in am
   POMASS = 107.87
  Ionic Valenz
   ZVAL   =  11.00
  Atomic Wigner-Seitz radii
   RWIGS  =  -1.00
  virtual crystal weights 
   VCA    =   1.00
   NELECT =      44.0000    total number of electrons
   NUPDOWN=      -1.0000    fix difference up-down

 DOS related values:
   EMIN   =  10.00;   EMAX   =-10.00  energy-range for DOS
   EFERMI =   0.00
   ISMEAR =     1;   SIGMA  =   0.10  broadening in eV -4-tet -1-fermi 0-gaus

 Electronic relaxation 2 (details)
   IALGO  =     68    algorithm
   LDIAG  =      T    sub-space diagonalisation (order eigenvalues)
   LSUBROT=      F    optimize rotation matrix (better conditioning)
   TURBO    =      0    0=normal 1=particle mesh
   IRESTART =      0    0=no restart 2=restart with 2 vectors
   NREBOOT  =      0    no. of reboots
   NMIN     =      0    reboot dimension
   EREF     =   0.00    reference energy to select bands
   IMIX   =      4    mixing-type and parameters
     AMIX     =   0.40;   BMIX     =  1.00
     AMIX_MAG =   1.60;   BMIX_MAG =  1.00
     AMIN     =   0.10
     WC   =   100.;   INIMIX=   1;  MIXPRE=   1;  MAXMIX= -45

 Intra band minimization:
   WEIMIN = 0.0010     energy-eigenvalue tresh-hold
   EBREAK =  0.96E-07  absolut break condition
   DEPER  =   0.30     relativ break condition  

   TIME   =   0.40     timestep for ELM

  volume/ion in A,a.u.               =      17.56       118.50
  Fermi-wavevector in a.u.,A,eV,Ry     =   1.400768  2.647068 26.696691  1.962151
  Thomas-Fermi vector in A             =   2.523696
 
 Write flags
   LWAVE  =      T    write WAVECAR
   LCHARG =      T    write CHGCAR
   LVTOT  =      F    write LOCPOT, total local potential
   LVHAR  =      F    write LOCPOT, Hartree potential only
   LELF   =      F    write electronic localiz. function (ELF)
   LORBIT =     11    0 simple, 1 ext, 2 COOP (PROOUT)


 Dipole corrections
   LMONO  =      F    monopole corrections only (constant potential shift)
   LDIPOL =      F    correct potential (dipole corrections)
   IDIPOL =      0    1-x, 2-y, 3-z, 4-all directions 
   EPSILON=  1.0000000 bulk dielectric constant

 Exchange correlation treatment:
   GGA     =    PE    GGA type
   LEXCH   =     8    internal setting for exchange type
   VOSKOWN=      0    Vosko Wilk Nusair interpolation
   LHFCALC =     F    Hartree Fock is set to
   LHFONE  =     F    Hartree Fock one center treatment
   AEXX    =    0.0000 exact exchange contribution

 Linear response parameters
   LEPSILON=     F    determine dielectric tensor
   LRPA    =     F    only Hartree local field effects (RPA)
   LNABLA  =     F    use nabla operator in PAW spheres
   LVEL    =     F    velocity operator in full k-point grid
   LINTERFAST=   F  fast interpolation
   KINTER  =     0    interpolate to denser k-point grid
   CSHIFT  =0.1000    complex shift for real part using Kramers Kronig
   OMEGAMAX=  -1.0    maximum frequency
   DEG_THRESHOLD= 0.2000000E-02 threshold for treating states as degnerate
   RTIME   =    0.100 relaxation time in fs

 Orbital magnetization related:
   ORBITALMAG=     F  switch on orbital magnetization
   LCHIMAG   =     F  perturbation theory with respect to B field
   DQ        =  0.001000  dq finite difference perturbation B field



--------------------------------------------------------------------------------------------------------


 conjugate gradient relaxation of ions
 charge density and potential will be updated during run
 non-spin polarized calculation
 RMM-DIIS sequential band-by-band and
  variant of blocked Davidson during initial phase
 perform sub-space diagonalisation
    before iterative eigenvector-optimisation
 modified Broyden-mixing scheme, WC =      100.0
 initial mixing is a Kerker type mixing with AMIX =  0.4000 and BMIX =      1.0000
 Hartree-type preconditioning will be used
 using additional bands            4
 real space projection scheme for non local part
 use partial core corrections
 calculate Harris-corrections to forces 
   (improved forces if not selfconsistent)
 use gradient corrections 
 use of overlap-Matrix (Vanderbilt PP)
 Methfessel and Paxton  Order N= 1 SIGMA  =   0.10


--------------------------------------------------------------------------------------------------------


  energy-cutoff  :      700.00
  volume of cell :       70.24
      direct lattice vectors                 reciprocal lattice vectors
     4.125970570  0.000000000  0.000000000     0.242367216  0.000000000  0.000000000
     0.000000000  4.125970570  0.000000000     0.000000000  0.242367216  0.000000000
     0.000000000  0.000000000  4.125970570     0.000000000  0.000000000  0.242367216

  length of vectors
     4.125970570  4.125970570  4.125970570     0.242367216  0.242367216  0.242367216


 
 k-points in units of 2pi/SCALE and weight: K-points                                
   0.00000000  0.00000000  0.00000000       0.001
   0.02203338  0.00000000  0.00000000       0.005
   0.04406677  0.00000000  0.00000000       0.005
   0.06610015  0.00000000  0.00000000       0.005
   0.08813353  0.00000000  0.00000000       0.005
   0.11016692  0.00000000  0.00000000       0.005
   0.02203338  0.02203338  0.00000000       0.009
   0.04406677  0.02203338  0.00000000       0.018
   0.06610015  0.02203338  0.00000000       0.018
   0.08813353  0.02203338  0.00000000       0.018
   0.11016692  0.02203338  0.00000000       0.018
   0.04406677  0.04406677  0.00000000       0.009
   0.06610015  0.04406677  0.00000000       0.018
   0.08813353  0.04406677  0.00000000       0.018
   0.11016692  0.04406677  0.00000000       0.018
   0.06610015  0.06610015  0.00000000       0.009
   0.08813353  0.06610015  0.00000000       0.018
   0.11016692  0.06610015  0.00000000       0.018
   0.08813353  0.08813353  0.00000000       0.009
   0.11016692  0.08813353  0.00000000       0.018
   0.11016692  0.11016692  0.00000000       0.009
   0.02203338  0.02203338  0.02203338       0.006
   0.04406677  0.02203338  0.02203338       0.018
   0.06610015  0.02203338  0.02203338       0.018
   0.08813353  0.02203338  0.02203338       0.018
   0.11016692  0.02203338  0.02203338       0.018
   0.04406677  0.04406677  0.02203338       0.018
   0.06610015  0.04406677  0.02203338       0.036
   0.08813353  0.04406677  0.02203338       0.036
   0.11016692  0.04406677  0.02203338       0.036
   0.06610015  0.06610015  0.02203338       0.018
   0.08813353  0.06610015  0.02203338       0.036
   0.11016692  0.06610015  0.02203338       0.036
   0.08813353  0.08813353  0.02203338       0.018
   0.11016692  0.08813353  0.02203338       0.036
   0.11016692  0.11016692  0.02203338       0.018
   0.04406677  0.04406677  0.04406677       0.006
   0.06610015  0.04406677  0.04406677       0.018
   0.08813353  0.04406677  0.04406677       0.018
   0.11016692  0.04406677  0.04406677       0.018
   0.06610015  0.06610015  0.04406677       0.018
   0.08813353  0.06610015  0.04406677       0.036
   0.11016692  0.06610015  0.04406677       0.036
   0.08813353  0.08813353  0.04406677       0.018
   0.11016692  0.08813353  0.04406677       0.036
   0.11016692  0.11016692  0.04406677       0.018
   0.06610015  0.06610015  0.06610015       0.006
   0.08813353  0.06610015  0.06610015       0.018
   0.11016692  0.06610015  0.06610015       0.018
   0.08813353  0.08813353  0.06610015       0.018
   0.11016692  0.08813353  0.06610015       0.036
   0.11016692  0.11016692  0.06610015       0.018
   0.08813353  0.08813353  0.08813353       0.006
   0.11016692  0.08813353  0.08813353       0.018
   0.11016692  0.11016692  0.08813353       0.018
   0.11016692  0.11016692  0.11016692       0.006
 
 k-points in reciprocal lattice and weights: K-points                                
   0.00000000  0.00000000  0.00000000       0.001
   0.09090909  0.00000000  0.00000000       0.005
   0.18181818  0.00000000  0.00000000       0.005
   0.27272727  0.00000000  0.00000000       0.005
   0.36363636  0.00000000  0.00000000       0.005
   0.45454545  0.00000000  0.00000000       0.005
   0.09090909  0.09090909  0.00000000       0.009
   0.18181818  0.09090909  0.00000000       0.018
   0.27272727  0.09090909  0.00000000       0.018
   0.36363636  0.09090909  0.00000000       0.018
   0.45454545  0.09090909  0.00000000       0.018
   0.18181818  0.18181818  0.00000000       0.009
   0.27272727  0.18181818  0.00000000       0.018
   0.36363636  0.18181818  0.00000000       0.018
   0.45454545  0.18181818  0.00000000       0.018
   0.27272727  0.27272727  0.00000000       0.009
   0.36363636  0.27272727  0.00000000       0.018
   0.45454545  0.27272727  0.00000000       0.018
   0.36363636  0.36363636  0.00000000       0.009
   0.45454545  0.36363636  0.00000000       0.018
   0.45454545  0.45454545  0.00000000       0.009
   0.09090909  0.09090909  0.09090909       0.006
   0.18181818  0.09090909  0.09090909       0.018
   0.27272727  0.09090909  0.09090909       0.018
   0.36363636  0.09090909  0.09090909       0.018
   0.45454545  0.09090909  0.09090909       0.018
   0.18181818  0.18181818  0.09090909       0.018
   0.27272727  0.18181818  0.09090909       0.036
   0.36363636  0.18181818  0.09090909       0.036
   0.45454545  0.18181818  0.09090909       0.036
   0.27272727  0.27272727  0.09090909       0.018
   0.36363636  0.27272727  0.09090909       0.036
   0.45454545  0.27272727  0.09090909       0.036
   0.36363636  0.36363636  0.09090909       0.018
   0.45454545  0.36363636  0.09090909       0.036
   0.45454545  0.45454545  0.09090909       0.018
   0.18181818  0.18181818  0.18181818       0.006
   0.27272727  0.18181818  0.18181818       0.018
   0.36363636  0.18181818  0.18181818       0.018
   0.45454545  0.18181818  0.18181818       0.018
   0.27272727  0.27272727  0.18181818       0.018
   0.36363636  0.27272727  0.18181818       0.036
   0.45454545  0.27272727  0.18181818       0.036
   0.36363636  0.36363636  0.18181818       0.018
   0.45454545  0.36363636  0.18181818       0.036
   0.45454545  0.45454545  0.18181818       0.018
   0.27272727  0.27272727  0.27272727       0.006
   0.36363636  0.27272727  0.27272727       0.018
   0.45454545  0.27272727  0.27272727       0.018
   0.36363636  0.36363636  0.27272727       0.018
   0.45454545  0.36363636  0.27272727       0.036
   0.45454545  0.45454545  0.27272727       0.018
   0.36363636  0.36363636  0.36363636       0.006
   0.45454545  0.36363636  0.36363636       0.018
   0.45454545  0.45454545  0.36363636       0.018
   0.45454545  0.45454545  0.45454545       0.006
 
 position of ions in fractional coordinates (direct lattice) 
   0.00000000  0.00000000  0.00000000
   0.00000000  0.50000000  0.50000000
   0.50000000  0.00000000  0.50000000
   0.50000000  0.50000000  0.00000000
 
 position of ions in cartesian coordinates  (Angst):
   0.00000000  0.00000000  0.00000000
   0.00000000  2.06298529  2.06298529
   2.06298529  0.00000000  2.06298529
   2.06298529  2.06298529  0.00000000
 


--------------------------------------------------------------------------------------------------------


 k-point  1 :   0.0000 0.0000 0.0000  plane waves:    2945
 k-point  2 :   0.0909 0.0000 0.0000  plane waves:    2941
 k-point  3 :   0.1818 0.0000 0.0000  plane waves:    2958
 k-point  4 :   0.2727 0.0000 0.0000  plane waves:    2946
 k-point  5 :   0.3636 0.0000 0.0000  plane waves:    2938
 k-point  6 :   0.4545 0.0000 0.0000  plane waves:    2926
 k-point  7 :   0.0909 0.0909 0.0000  plane waves:    2949
 k-point  8 :   0.1818 0.0909 0.0000  plane waves:    2945
 k-point  9 :   0.2727 0.0909 0.0000  plane waves:    2957
 k-point 10 :   0.3636 0.0909 0.0000  plane waves:    2941
 k-point 11 :   0.4545 0.0909 0.0000  plane waves:    2941
 k-point 12 :   0.1818 0.1818 0.0000  plane waves:    2953
 k-point 13 :   0.2727 0.1818 0.0000  plane waves:    2956
 k-point 14 :   0.3636 0.1818 0.0000  plane waves:    2953
 k-point 15 :   0.4545 0.1818 0.0000  plane waves:    2948
 k-point 16 :   0.2727 0.2727 0.0000  plane waves:    2953
 k-point 17 :   0.3636 0.2727 0.0000  plane waves:    2950
 k-point 18 :   0.4545 0.2727 0.0000  plane waves:    2954
 k-point 19 :   0.3636 0.3636 0.0000  plane waves:    2956
 k-point 20 :   0.4545 0.3636 0.0000  plane waves:    2955
 k-point 21 :   0.4545 0.4545 0.0000  plane waves:    2970
 k-point 22 :   0.0909 0.0909 0.0909  plane waves:    2945
 k-point 23 :   0.1818 0.0909 0.0909  plane waves:    2951
 k-point 24 :   0.2727 0.0909 0.0909  plane waves:    2945
 k-point 25 :   0.3636 0.0909 0.0909  plane waves:    2941
 k-point 26 :   0.4545 0.0909 0.0909  plane waves:    2937
 k-point 27 :   0.1818 0.1818 0.0909  plane waves:    2952
 k-point 28 :   0.2727 0.1818 0.0909  plane waves:    2949
 k-point 29 :   0.3636 0.1818 0.0909  plane waves:    2952
 k-point 30 :   0.4545 0.1818 0.0909  plane waves:    2944
 k-point 31 :   0.2727 0.2727 0.0909  plane waves:    2950
 k-point 32 :   0.3636 0.2727 0.0909  plane waves:    2955
 k-point 33 :   0.4545 0.2727 0.0909  plane waves:    2950
 k-point 34 :   0.3636 0.3636 0.0909  plane waves:    2955
 k-point 35 :   0.4545 0.3636 0.0909  plane waves:    2955
 k-point 36 :   0.4545 0.4545 0.0909  plane waves:    2964
 k-point 37 :   0.1818 0.1818 0.1818  plane waves:    2962
 k-point 38 :   0.2727 0.1818 0.1818  plane waves:    2951
 k-point 39 :   0.3636 0.1818 0.1818  plane waves:    2956
 k-point 40 :   0.4545 0.1818 0.1818  plane waves:    2947
 k-point 41 :   0.2727 0.2727 0.1818  plane waves:    2953
 k-point 42 :   0.3636 0.2727 0.1818  plane waves:    2950
 k-point 43 :   0.4545 0.2727 0.1818  plane waves:    2948
 k-point 44 :   0.3636 0.3636 0.1818  plane waves:    2953
 k-point 45 :   0.4545 0.3636 0.1818  plane waves:    2958
 k-point 46 :   0.4545 0.4545 0.1818  plane waves:    2968
 k-point 47 :   0.2727 0.2727 0.2727  plane waves:    2968
 k-point 48 :   0.3636 0.2727 0.2727  plane waves:    2961
 k-point 49 :   0.4545 0.2727 0.2727  plane waves:    2955
 k-point 50 :   0.3636 0.3636 0.2727  plane waves:    2959
 k-point 51 :   0.4545 0.3636 0.2727  plane waves:    2970
 k-point 52 :   0.4545 0.4545 0.2727  plane waves:    2978
 k-point 53 :   0.3636 0.3636 0.3636  plane waves:    2983
 k-point 54 :   0.4545 0.3636 0.3636  plane waves:    2971
 k-point 55 :   0.4545 0.4545 0.3636  plane waves:    2973
 k-point 56 :   0.4545 0.4545 0.4545  plane waves:    2968

 maximum and minimum number of plane-waves per node :       510      462

 maximum number of plane-waves:      2983
 maximum index in each direction: 
   IXMAX=    8   IYMAX=    8   IZMAX=    8
   IXMIN=   -9   IYMIN=   -9   IZMIN=   -9

 WARNING: aliasing errors must be expected set NGX to  36 to avoid them
 WARNING: aliasing errors must be expected set NGY to  36 to avoid them
 WARNING: aliasing errors must be expected set NGZ to  36 to avoid them
 aliasing errors are usually negligible using standard VASP settings
 and one can safely disregard these warnings

 real space projection operators:
  total allocation   :       1929.94 KBytes
  max/ min on nodes  :        358.59        255.94


 parallel 3D FFT for wavefunctions:
    minimum data exchange during FFTs selected (reduces bandwidth)
 parallel 3D FFT for charge:
    minimum data exchange during FFTs selected (reduces bandwidth)


 total amount of memory used by VASP on root node    38300. kBytes
========================================================================

   base      :      30000. kBytes
   nonlr-proj:        664. kBytes
   fftplans  :        659. kBytes
   grid      :        929. kBytes
   one-center:         15. kBytes
   wavefun   :       6033. kBytes
 
     INWAV:  cpu time    0.00: real time    0.00
 Broyden mixing: mesh for mixing (old mesh)
   NGX = 17   NGY = 17   NGZ = 17
  (NGX  = 56   NGY  = 56   NGZ  = 56)
  gives a total of   4913 points

 initial charge density was supplied:
 charge density of overlapping atoms calculated
 number of electron      44.0000000 magnetization 
 keeping initial charge density in first step


--------------------------------------------------------------------------------------------------------


 Maximum index for non-local projection operator          671
 Maximum index for augmentation-charges         1555 (set IRDMAX)


--------------------------------------------------------------------------------------------------------


 First call to EWALD:  gamma=   0.430
 Maximum number of real-space cells 3x 3x 3
 Maximum number of reciprocal cells 3x 3x 3

 FEWALD executed in parallel
    FEWALD:  cpu time    0.00: real time    0.00


----------------------------------------- Iteration    1(   1)  ---------------------------------------


    POTLOK:  cpu time    0.02: real time    0.02
    SETDIJ:  cpu time    0.00: real time    0.01
     EDDAV:  cpu time    2.29: real time    2.29
       DOS:  cpu time    0.01: real time    0.01
    --------------------------------------------
      LOOP:  cpu time    2.33: real time    2.34

 eigenvalue-minimisations  :  2912
 total energy-change (2. order) : 0.3408051E+03  (-0.2732275E+04)
 number of electron      44.0000000 magnetization 
 augmentation part       44.0000000 magnetization 

 Free energy of the ion-electron system (eV)
  ---------------------------------------------------
  alpha Z        PSCENC =       193.75627912
  Ewald energy   TEWEN  =     -3872.32315568
  -Hartree energ DENC   =      -828.19623561
  -exchange      EXHF   =         0.00000000
  -V(xc)+E(xc)   XCENC  =       -41.95847246
  PAW double counting   =      4013.84859731    -3829.39709692
  entropy T*S    EENTRO =        -0.00064981
  eigenvalues    EBANDS =       556.01000396
  atomic energy  EATOM  =      4149.06579846
  ---------------------------------------------------
  free energy    TOTEN  =       340.80506837 eV

  energy without entropy =      340.80571818  energy(sigma->0) =      340.80528497


--------------------------------------------------------------------------------------------------------




----------------------------------------- Iteration    1(   2)  ---------------------------------------


     EDDAV:  cpu time    2.35: real time    2.36
       DOS:  cpu time    0.02: real time    0.02
    --------------------------------------------
      LOOP:  cpu time    2.37: real time    2.38

 eigenvalue-minimisations  :  3008
 total energy-change (2. order) :-0.3442341E+03  (-0.3345981E+03)
 number of electron      44.0000000 magnetization 
 augmentation part       44.0000000 magnetization 

 Free energy of the ion-electron system (eV)
  ---------------------------------------------------
  alpha Z        PSCENC =       193.75627912
  Ewald energy   TEWEN  =     -3872.32315568
  -Hartree energ DENC   =      -828.19623561
  -exchange      EXHF   =         0.00000000
  -V(xc)+E(xc)   XCENC  =       -41.95847246
  PAW double counting   =      4013.84859731    -3829.39709692
  entropy T*S    EENTRO =        -0.00026700
  eigenvalues    EBANDS =       211.77548291
  atomic energy  EATOM  =      4149.06579846
  ---------------------------------------------------
  free energy    TOTEN  =        -3.42906987 eV

  energy without entropy =       -3.42880288  energy(sigma->0) =       -3.42898087


--------------------------------------------------------------------------------------------------------




----------------------------------------- Iteration    1(   3)  ---------------------------------------


     EDDAV:  cpu time    2.44: real time    2.45
       DOS:  cpu time    0.02: real time    0.02
    --------------------------------------------
      LOOP:  cpu time    2.46: real time    2.47

 eigenvalue-minimisations  :  3162
 total energy-change (2. order) :-0.8372729E+01  (-0.8302373E+01)
 number of electron      44.0000000 magnetization 
 augmentation part       44.0000000 magnetization 

 Free energy of the ion-electron system (eV)
  ---------------------------------------------------
  alpha Z        PSCENC =       193.75627912
  Ewald energy   TEWEN  =     -3872.32315568
  -Hartree energ DENC   =      -828.19623561
  -exchange      EXHF   =         0.00000000
  -V(xc)+E(xc)   XCENC  =       -41.95847246
  PAW double counting   =      4013.84859731    -3829.39709692
  entropy T*S    EENTRO =         0.00066900
  eigenvalues    EBANDS =       203.40181745
  atomic energy  EATOM  =      4149.06579846
  ---------------------------------------------------
  free energy    TOTEN  =       -11.80179933 eV

  energy without entropy =      -11.80246834  energy(sigma->0) =      -11.80202233


--------------------------------------------------------------------------------------------------------




----------------------------------------- Iteration    1(   4)  ---------------------------------------


     EDDAV:  cpu time    2.38: real time    2.39
       DOS:  cpu time    0.02: real time    0.02
    --------------------------------------------
      LOOP:  cpu time    2.41: real time    2.41

 eigenvalue-minimisations  :  3072
 total energy-change (2. order) :-0.5857166E-01  (-0.5847901E-01)
 number of electron      44.0000000 magnetization 
 augmentation part       44.0000000 magnetization 

 Free energy of the ion-electron system (eV)
  ---------------------------------------------------
  alpha Z        PSCENC =       193.75627912
  Ewald energy   TEWEN  =     -3872.32315568
  -Hartree energ DENC   =      -828.19623561
  -exchange      EXHF   =         0.00000000
  -V(xc)+E(xc)   XCENC  =       -41.95847246
  PAW double counting   =      4013.84859731    -3829.39709692
  entropy T*S    EENTRO =         0.00066219
  eigenvalues    EBANDS =       203.34325260
  atomic energy  EATOM  =      4149.06579846
  ---------------------------------------------------
  free energy    TOTEN  =       -11.86037100 eV

  energy without entropy =      -11.86103319  energy(sigma->0) =      -11.86059173


--------------------------------------------------------------------------------------------------------




----------------------------------------- Iteration    1(   5)  ---------------------------------------


     EDDAV:  cpu time    2.36: real time    2.37
       DOS:  cpu time    0.02: real time    0.02
    CHARGE:  cpu time    0.17: real time    0.17
    MIXING:  cpu time    0.00: real time    0.00
    --------------------------------------------
      LOOP:  cpu time    2.56: real time    2.56

 eigenvalue-minimisations  :  3042
 total energy-change (2. order) :-0.4124385E-03  (-0.4124342E-03)
 number of electron      44.0000056 magnetization 
 augmentation part       20.2974189 magnetization 

 Broyden mixing:
  rms(total) = 0.96719E+00    rms(broyden)= 0.96719E+00
  rms(prec ) = 0.16559E+01
  weight for this iteration     100.00

 Free energy of the ion-electron system (eV)
  ---------------------------------------------------
  alpha Z        PSCENC =       193.75627912
  Ewald energy   TEWEN  =     -3872.32315568
  -Hartree energ DENC   =      -828.19623561
  -exchange      EXHF   =         0.00000000
  -V(xc)+E(xc)   XCENC  =       -41.95847246
  PAW double counting   =      4013.84859731    -3829.39709692
  entropy T*S    EENTRO =         0.00066192
  eigenvalues    EBANDS =       203.34284043
  atomic energy  EATOM  =      4149.06579846
  ---------------------------------------------------
  free energy    TOTEN  =       -11.86078344 eV

  energy without entropy =      -11.86144536  energy(sigma->0) =      -11.86100408


--------------------------------------------------------------------------------------------------------




----------------------------------------- Iteration    1(   6)  ---------------------------------------


    POTLOK:  cpu time    0.02: real time    0.02
    SETDIJ:  cpu time    0.01: real time    0.01
    EDDIAG:  cpu time    0.41: real time    0.42
  RMM-DIIS:  cpu time    1.34: real time    1.35
    ORTHCH:  cpu time    0.04: real time    0.04
       DOS:  cpu time    0.02: real time    0.02
    CHARGE:  cpu time    0.17: real time    0.17
    MIXING:  cpu time    0.00: real time    0.00
    --------------------------------------------
      LOOP:  cpu time    2.02: real time    2.02

 eigenvalue-minimisations  :  2912
 total energy-change (2. order) : 0.9457862E+00  (-0.3472098E+00)
 number of electron      44.0000057 magnetization 
 augmentation part       20.9462256 magnetization 

 Broyden mixing:
  rms(total) = 0.63020E+00    rms(broyden)= 0.63020E+00
  rms(prec ) = 0.66983E+00
  weight for this iteration     100.00

 eigenvalues of (default mixing * dielectric matrix)
  average eigenvalue GAMMA=   1.2567
  1.2567

 Free energy of the ion-electron system (eV)
  ---------------------------------------------------
  alpha Z        PSCENC =       193.75627912
  Ewald energy   TEWEN  =     -3872.32315568
  -Hartree energ DENC   =      -789.38627882
  -exchange      EXHF   =         0.00000000
  -V(xc)+E(xc)   XCENC  =       -43.35795309
  PAW double counting   =      4174.33016599    -3993.79507852
  entropy T*S    EENTRO =        -0.00096407
  eigenvalues    EBANDS =       170.79618936
  atomic energy  EATOM  =      4149.06579846
  ---------------------------------------------------
  free energy    TOTEN  =       -10.91499724 eV

  energy without entropy =      -10.91403317  energy(sigma->0) =      -10.91467589


--------------------------------------------------------------------------------------------------------




----------------------------------------- Iteration    1(   7)  ---------------------------------------


    POTLOK:  cpu time    0.02: real time    0.02
    SETDIJ:  cpu time    0.00: real time    0.01
    EDDIAG:  cpu time    0.41: real time    0.42
  RMM-DIIS:  cpu time    1.34: real time    1.34
    ORTHCH:  cpu time    0.04: real time    0.04
       DOS:  cpu time    0.02: real time    0.02
    CHARGE:  cpu time    0.17: real time    0.17
    MIXING:  cpu time    0.00: real time    0.00
    --------------------------------------------
      LOOP:  cpu time    2.02: real time    2.02

 eigenvalue-minimisations  :  2914
 total energy-change (2. order) : 0.2836854E-01  (-0.6135244E-02)
 number of electron      44.0000057 magnetization 
 augmentation part       21.0168985 magnetization 

 Broyden mixing:
  rms(total) = 0.35819E+00    rms(broyden)= 0.35819E+00
  rms(prec ) = 0.36614E+00
  weight for this iteration     100.00

 eigenvalues of (default mixing * dielectric matrix)
  average eigenvalue GAMMA=   1.8446
  1.0962  2.5929

 Free energy of the ion-electron system (eV)
  ---------------------------------------------------
  alpha Z        PSCENC =       193.75627912
  Ewald energy   TEWEN  =     -3872.32315568
  -Hartree energ DENC   =      -782.36669342
  -exchange      EXHF   =         0.00000000
  -V(xc)+E(xc)   XCENC  =       -43.62189957
  PAW double counting   =      4301.13255909    -4123.53372673
  entropy T*S    EENTRO =        -0.00097475
  eigenvalues    EBANDS =       167.00518478
  atomic energy  EATOM  =      4149.06579846
  ---------------------------------------------------
  free energy    TOTEN  =       -10.88662870 eV

  energy without entropy =      -10.88565396  energy(sigma->0) =      -10.88630379


--------------------------------------------------------------------------------------------------------




----------------------------------------- Iteration    1(   8)  ---------------------------------------


    POTLOK:  cpu time    0.02: real time    0.02
    SETDIJ:  cpu time    0.01: real time    0.01
    EDDIAG:  cpu time    0.41: real time    0.42
  RMM-DIIS:  cpu time    1.34: real time    1.34
    ORTHCH:  cpu time    0.04: real time    0.04
       DOS:  cpu time    0.02: real time    0.02
    CHARGE:  cpu time    0.17: real time    0.17
    MIXING:  cpu time    0.00: real time    0.00
    --------------------------------------------
      LOOP:  cpu time    2.01: real time    2.02

 eigenvalue-minimisations  :  2912
 total energy-change (2. order) : 0.1014788E-01  (-0.3709719E-03)
 number of electron      44.0000057 magnetization 
 augmentation part       21.0098989 magnetization 

 Broyden mixing:
  rms(total) = 0.18854E-01    rms(broyden)= 0.18854E-01
  rms(prec ) = 0.20913E-01
  weight for this iteration     100.00

 eigenvalues of (default mixing * dielectric matrix)
  average eigenvalue GAMMA=   1.5317
  2.4929  1.0511  1.0511

 Free energy of the ion-electron system (eV)
  ---------------------------------------------------
  alpha Z        PSCENC =       193.75627912
  Ewald energy   TEWEN  =     -3872.32315568
  -Hartree energ DENC   =      -778.48708453
  -exchange      EXHF   =         0.00000000
  -V(xc)+E(xc)   XCENC  =       -43.77714245
  PAW double counting   =      4444.29336023    -4270.07855751
  entropy T*S    EENTRO =        -0.00097954
  eigenvalues    EBANDS =       166.67500107
  atomic energy  EATOM  =      4149.06579846
  ---------------------------------------------------
  free energy    TOTEN  =       -10.87648083 eV

  energy without entropy =      -10.87550128  energy(sigma->0) =      -10.87615431


--------------------------------------------------------------------------------------------------------




----------------------------------------- Iteration    1(   9)  ---------------------------------------


    POTLOK:  cpu time    0.02: real time    0.02
    SETDIJ:  cpu time    0.01: real time    0.01
    EDDIAG:  cpu time    0.41: real time    0.42
  RMM-DIIS:  cpu time    1.34: real time    1.34
    ORTHCH:  cpu time    0.04: real time    0.04
       DOS:  cpu time    0.02: real time    0.02
    CHARGE:  cpu time    0.17: real time    0.17
    MIXING:  cpu time    0.00: real time    0.00
    --------------------------------------------
      LOOP:  cpu time    2.01: real time    2.02

 eigenvalue-minimisations  :  2913
 total energy-change (2. order) : 0.7061551E-04  (-0.3540159E-04)
 number of electron      44.0000057 magnetization 
 augmentation part       21.0159336 magnetization 

 Broyden mixing:
  rms(total) = 0.26279E-02    rms(broyden)= 0.26279E-02
  rms(prec ) = 0.45175E-02
  weight for this iteration     100.00

 eigenvalues of (default mixing * dielectric matrix)
  average eigenvalue GAMMA=   1.8149
  0.9720  1.0429  2.7109  2.5338

 Free energy of the ion-electron system (eV)
  ---------------------------------------------------
  alpha Z        PSCENC =       193.75627912
  Ewald energy   TEWEN  =     -3872.32315568
  -Hartree energ DENC   =      -778.32734772
  -exchange      EXHF   =         0.00000000
  -V(xc)+E(xc)   XCENC  =       -43.78276422
  PAW double counting   =      4438.29864318    -4263.92684995
  entropy T*S    EENTRO =        -0.00097837
  eigenvalues    EBANDS =       166.36396497
  atomic energy  EATOM  =      4149.06579846
  ---------------------------------------------------
  free energy    TOTEN  =       -10.87641021 eV

  energy without entropy =      -10.87543184  energy(sigma->0) =      -10.87608409


--------------------------------------------------------------------------------------------------------




----------------------------------------- Iteration    1(  10)  ---------------------------------------


    POTLOK:  cpu time    0.02: real time    0.02
    SETDIJ:  cpu time    0.01: real time    0.01
    EDDIAG:  cpu time    0.41: real time    0.42
  RMM-DIIS:  cpu time    0.90: real time    0.90
    ORTHCH:  cpu time    0.04: real time    0.04
       DOS:  cpu time    0.02: real time    0.02
    CHARGE:  cpu time    0.17: real time    0.17
    MIXING:  cpu time    0.00: real time    0.00
    --------------------------------------------
      LOOP:  cpu time    1.57: real time    1.58

 eigenvalue-minimisations  :  1823
 total energy-change (2. order) :-0.2920830E-04  (-0.2456418E-05)
 number of electron      44.0000057 magnetization 
 augmentation part       21.0169596 magnetization 

 Broyden mixing:
  rms(total) = 0.62246E-03    rms(broyden)= 0.62245E-03
  rms(prec ) = 0.12351E-02
  weight for this iteration     100.00

 eigenvalues of (default mixing * dielectric matrix)
  average eigenvalue GAMMA=   1.6899
  2.7454  2.4746  0.9728  1.1510  1.1059

 Free energy of the ion-electron system (eV)
  ---------------------------------------------------
  alpha Z        PSCENC =       193.75627912
  Ewald energy   TEWEN  =     -3872.32315568
  -Hartree energ DENC   =      -778.27457898
  -exchange      EXHF   =         0.00000000
  -V(xc)+E(xc)   XCENC  =       -43.78586506
  PAW double counting   =      4436.79410373    -4262.37926305
  entropy T*S    EENTRO =        -0.00097776
  eigenvalues    EBANDS =       166.27121980
  atomic energy  EATOM  =      4149.06579846
  ---------------------------------------------------
  free energy    TOTEN  =       -10.87643942 eV

  energy without entropy =      -10.87546166  energy(sigma->0) =      -10.87611350


--------------------------------------------------------------------------------------------------------




----------------------------------------- Iteration    1(  11)  ---------------------------------------


    POTLOK:  cpu time    0.02: real time    0.02
    SETDIJ:  cpu time    0.01: real time    0.01
    EDDIAG:  cpu time    0.41: real time    0.41
  RMM-DIIS:  cpu time    0.79: real time    0.79
    ORTHCH:  cpu time    0.04: real time    0.04
       DOS:  cpu time    0.02: real time    0.02
    --------------------------------------------
      LOOP:  cpu time    1.28: real time    1.29

 eigenvalue-minimisations  :  1535
 total energy-change (2. order) : 0.3317418E-06  (-0.4389270E-06)
 number of electron      44.0000057 magnetization 
 augmentation part       21.0169596 magnetization 

 Free energy of the ion-electron system (eV)
  ---------------------------------------------------
  alpha Z        PSCENC =       193.75627912
  Ewald energy   TEWEN  =     -3872.32315568
  -Hartree energ DENC   =      -778.30873893
  -exchange      EXHF   =         0.00000000
  -V(xc)+E(xc)   XCENC  =       -43.78471277
  PAW double counting   =      4436.62881804    -4262.21107198
  entropy T*S    EENTRO =        -0.00097784
  eigenvalues    EBANDS =       166.30132248
  atomic energy  EATOM  =      4149.06579846
  ---------------------------------------------------
  free energy    TOTEN  =       -10.87643909 eV

  energy without entropy =      -10.87546125  energy(sigma->0) =      -10.87611314


--------------------------------------------------------------------------------------------------------




 average (electrostatic) potential at core
  the test charge radii are     1.1249
  (the norm of the test charge is              1.0000)
       1 -71.0970       2 -71.0970       3 -71.0970       4 -71.0970
 
 
 
 E-fermi :   8.1115     XC(G=0): -12.0352     alpha+bet :-13.0716


 k-point     1 :       0.0000    0.0000    0.0000
  band No.  band energies     occupation 
      1       0.4731      2.00000
      2       1.7745      2.00000
      3       1.7745      2.00000
      4       1.7745      2.00000
      5       1.9031      2.00000
      6       1.9031      2.00000
      7       1.9031      2.00000
      8       3.3248      2.00000
      9       3.3248      2.00000
     10       3.3248      2.00000
     11       4.3069      2.00000
     12       4.3069      2.00000
     13       5.0312      2.00000
     14       5.0312      2.00000
     15       5.0312      2.00000
     16       5.2583      2.00000
     17       5.2583      2.00000
     18       5.2583      2.00000
     19       5.2583      2.00000
     20       5.2583      2.00000
     21       5.2583      2.00000
     22       9.6603     -0.00000
     23       9.6603     -0.00000
     24       9.6603     -0.00000
     25      14.5431      0.00000
     26      14.5431      0.00000

 k-point     2 :       0.0909    0.0000    0.0000
  band No.  band energies     occupation 
      1       0.5576      2.00000
      2       1.8084      2.00000
      3       1.8187      2.00000
      4       1.8187      2.00000
      5       1.9289      2.00000
      6       1.9426      2.00000
      7       1.9426      2.00000
      8       3.2924      2.00000
      9       3.3548      2.00000
     10       3.3548      2.00000
     11       4.2745      2.00000
     12       4.3208      2.00000
     13       4.9880      2.00000
     14       4.9880      2.00000
     15       5.0157      2.00000
     16       5.1063      2.00000
     17       5.1063      2.00000
     18       5.2054      2.00000
     19       5.2054      2.00000
     20       5.2584      2.00000
     21       5.2584      2.00000
     22       9.1037     -0.00000
     23       9.8830     -0.00000
     24       9.8830     -0.00000
     25      14.5531      0.00000
     26      14.5531      0.00000

 k-point     3 :       0.1818    0.0000    0.0000
  band No.  band energies     occupation 
      1       0.8061      2.00000
      2       1.9048      2.00000
      3       1.9447      2.00000
      4       1.9447      2.00000
      5       2.0047      2.00000
      6       2.0609      2.00000
      7       2.0609      2.00000
      8       3.1988      2.00000
      9       3.4439      2.00000
     10       3.4439      2.00000
     11       4.1851      2.00000
     12       4.3616      2.00000
     13       4.7257      2.00000
     14       4.7257      2.00000
     15       4.8643      2.00000
     16       4.8643      2.00000
     17       4.9707      2.00000
     18       5.0559      2.00000
     19       5.0559      2.00000
     20       5.2586      2.00000
     21       5.2586      2.00000
     22       7.9438      2.03910
     23      10.4745     -0.00000
     24      10.4745     -0.00000
     25      14.5851      0.00000
     26      14.5851      0.00000

 k-point     4 :       0.2727    0.0000    0.0000
  band No.  band energies     occupation 
      1       1.1980      2.00000
      2       2.0458      2.00000
      3       2.1261      2.00000
      4       2.1302      2.00000
      5       2.1302      2.00000
      6       2.2571      2.00000
      7       2.2571      2.00000
      8       3.0543      2.00000
      9       3.5891      2.00000
     10       3.5891      2.00000
     11       4.0663      2.00000
     12       4.2446      2.00000
     13       4.2446      2.00000
     14       4.4264      2.00000
     15       4.6804      2.00000
     16       4.6804      2.00000
     17       4.8336      2.00000
     18       4.8336      2.00000
     19       4.9003      2.00000
     20       5.2589      2.00000
     21       5.2589      2.00000
     22       6.6914      2.00000
     23      11.3020      0.00000
     24      11.3020      0.00000
     25      14.6439      0.00000
     26      14.6439      0.00000

 k-point     5 :       0.3636    0.0000    0.0000
  band No.  band energies     occupation 
      1       1.6768      2.00000
      2       2.1923      2.00000
      3       2.2857      2.00000
      4       2.3311      2.00000
      5       2.3311      2.00000
      6       2.5293      2.00000
      7       2.5293      2.00000
      8       2.8736      2.00000
      9       3.7492      2.00000
     10       3.7492      2.00000
     11       3.7851      2.00000
     12       3.7851      2.00000
     13       3.9855      2.00000
     14       4.4800      2.00000
     15       4.4800      2.00000
     16       4.5105      2.00000
     17       4.5688      2.00000
     18       4.5688      2.00000
     19       4.8111      2.00000
     20       5.2591      2.00000
     21       5.2591      2.00000
     22       5.5436      2.00000
     23      12.2717      0.00000
     24      12.2717      0.00000
     25      14.7276      0.00000
     26      14.7281      0.00000

 k-point     6 :       0.4545    0.0000    0.0000
  band No.  band energies     occupation 
      1       2.0969      2.00000
      2       2.2594      2.00000
      3       2.4722      2.00000
      4       2.4722      2.00000
      5       2.4728      2.00000
      6       2.6740      2.00000
      7       2.8740      2.00000
      8       2.8740      2.00000
      9       3.2847      2.00000
     10       3.2847      2.00000
     11       4.0233      2.00000
     12       4.0233      2.00000
     13       4.1022      2.00000
     14       4.2906      2.00000
     15       4.2906      2.00000
     16       4.3387      2.00000
     17       4.3387      2.00000
     18       4.6078      2.00000
     19       4.6284      2.00000
     20       4.7107      2.00000
     21       5.2593      2.00000
     22       5.2593      2.00000
     23      13.3267      0.00000
     24      13.3267      0.00000
     25      14.4273      0.00000
     26      14.4318      0.00000

 k-point     7 :       0.0909    0.0909    0.0000
  band No.  band energies     occupation 
      1       0.6409      2.00000
      2       1.8530      2.00000
      3       1.8530      2.00000
      4       1.8537      2.00000
      5       1.9678      2.00000
      6       1.9678      2.00000
      7       1.9894      2.00000
      8       3.2803      2.00000
      9       3.3655      2.00000
     10       3.3823      2.00000
     11       4.2660      2.00000
     12       4.3144      2.00000
     13       4.9422      2.00000
     14       4.9422      2.00000
     15       4.9470      2.00000
     16       5.0028      2.00000
     17       5.0829      2.00000
     18       5.0829      2.00000
     19       5.2053      2.00000
     20       5.2053      2.00000
     21       5.2218      2.00000
     22       9.3157     -0.00000
     23       9.3157     -0.00000
     24      10.0942     -0.00000
     25      14.5622      0.00000
     26      15.2511      0.00000

 k-point     8 :       0.1818    0.0909    0.0000
  band No.  band energies     occupation 
      1       0.8851      2.00000
      2       1.9505      2.00000
      3       1.9575      2.00000
      4       1.9800      2.00000
      5       2.0418      2.00000
      6       2.0841      2.00000
      7       2.1240      2.00000
      8       3.1993      2.00000
      9       3.4450      2.00000
     10       3.4627      2.00000
     11       4.1898      2.00000
     12       4.3536      2.00000
     13       4.6234      2.00000
     14       4.6650      2.00000
     15       4.8029      2.00000
     16       4.8291      2.00000
     17       4.9000      2.00000
     18       5.0234      2.00000
     19       5.0553      2.00000
     20       5.2035      2.00000
     21       5.2049      2.00000
     22       8.1521      0.37158
     23       9.8681     -0.00000
     24      10.6621     -0.00000
     25      14.5862      0.00000
     26      15.3134      0.00000

 k-point     9 :       0.2727    0.0909    0.0000
  band No.  band energies     occupation 
      1       1.2695      2.00000
      2       2.0936      2.00000
      3       2.1240      2.00000
      4       2.1602      2.00000
      5       2.1673      2.00000
      6       2.2770      2.00000
      7       2.3297      2.00000
      8       3.0613      2.00000
      9       3.5837      2.00000
     10       3.5880      2.00000
     11       4.0897      2.00000
     12       4.1618      2.00000
     13       4.2109      2.00000
     14       4.4289      2.00000
     15       4.5833      2.00000
     16       4.6534      2.00000
     17       4.7061      2.00000
     18       4.8324      2.00000
     19       4.9369      2.00000
     20       5.2001      2.00000
     21       5.2043      2.00000
     22       6.9147      2.00000
     23      10.6193     -0.00000
     24      11.4676      0.00000
     25      14.5778      0.00000
     26      15.4118      0.00000

 k-point    10 :       0.3636    0.0909    0.0000
  band No.  band energies     occupation 
      1       1.7388      2.00000
      2       2.2435      2.00000
      3       2.3156      2.00000
      4       2.3288      2.00000
      5       2.3703      2.00000
      6       2.5443      2.00000
      7       2.5839      2.00000
      8       2.8868      2.00000
      9       3.6872      2.00000
     10       3.6919      2.00000
     11       3.7344      2.00000
     12       3.7833      2.00000
     13       4.0846      2.00000
     14       4.3062      2.00000
     15       4.4620      2.00000
     16       4.4984      2.00000
     17       4.5307      2.00000
     18       4.5670      2.00000
     19       4.8250      2.00000
     20       5.2000      2.00000
     21       5.2033      2.00000
     22       5.8066      2.00000
     23      11.4709      0.00000
     24      12.4208      0.00000
     25      14.1237      0.00000
     26      15.0513      0.00000

 k-point    11 :       0.4545    0.0909    0.0000
  band No.  band energies     occupation 
      1       2.1529      2.00000
      2       2.3141      2.00000
      3       2.4954      2.00000
      4       2.4977      2.00000
      5       2.5103      2.00000
      6       2.6933      2.00000
      7       2.8821      2.00000
      8       2.8830      2.00000
      9       3.2515      2.00000
     10       3.2832      2.00000
     11       3.7766      2.00000
     12       4.0027      2.00000
     13       4.0211      2.00000
     14       4.2885      2.00000
     15       4.3188      2.00000
     16       4.3316      2.00000
     17       4.3453      2.00000
     18       4.6623      2.00000
     19       4.6640      2.00000
     20       4.9843      2.00000
     21       5.2010      2.00000
     22       5.2022      2.00000
     23      12.3645      0.00000
     24      13.2650      0.00000
     25      13.4643      0.00000
     26      14.5578      0.00000

 k-point    12 :       0.1818    0.1818    0.0000
  band No.  band energies     occupation 
      1       1.1159      2.00000
      2       2.0224      2.00000
      3       2.0810      2.00000
      4       2.0810      2.00000
      5       2.1525      2.00000
      6       2.1525      2.00000
      7       2.2804      2.00000
      8       3.1669      2.00000
      9       3.4841      2.00000
     10       3.5163      2.00000
     11       4.1605      2.00000
     12       4.3820      2.00000
     13       4.4215      2.00000
     14       4.4215      2.00000
     15       4.4513      2.00000
     16       4.7272      2.00000
     17       4.9087      2.00000
     18       4.9087      2.00000
     19       5.0534      2.00000
     20       5.0534      2.00000
     21       5.1144      2.00000
     22       8.6755     -0.00000
     23       8.6755     -0.00000
     24      11.1791      0.00000
     25      14.5046      0.00000
     26      15.2504      0.00000

 k-point    13 :       0.2727    0.1818    0.0000
  band No.  band energies     occupation 
      1       1.4768      2.00000
      2       2.1539      2.00000
      3       2.2306      2.00000
      4       2.2616      2.00000
      5       2.2741      2.00000
      6       2.3355      2.00000
      7       2.4929      2.00000
      8       3.0672      2.00000
      9       3.5830      2.00000
     10       3.6016      2.00000
     11       3.9712      2.00000
     12       4.0949      2.00000
     13       4.0964      2.00000
     14       4.1705      2.00000
     15       4.4928      2.00000
     16       4.5732      2.00000
     17       4.7289      2.00000
     18       4.8290      2.00000
     19       4.8564      2.00000
     20       5.0507      2.00000
     21       5.0667      2.00000
     22       7.4405      2.00000
     23       9.3654     -0.00000
     24      11.9336      0.00000
     25      13.7756      0.00000
     26      14.9497      0.00000

 k-point    14 :       0.3636    0.1818    0.0000
  band No.  band energies     occupation 
      1       1.9148      2.00000
      2       2.3442      2.00000
      3       2.3907      2.00000
      4       2.4043      2.00000
      5       2.4843      2.00000
      6       2.5880      2.00000
      7       2.7222      2.00000
      8       2.9192      2.00000
      9       3.5357      2.00000
     10       3.5898      2.00000
     11       3.6840      2.00000
     12       3.7858      2.00000
     13       3.8947      2.00000
     14       4.1293      2.00000
     15       4.4057      2.00000
     16       4.5196      2.00000
     17       4.5626      2.00000
     18       4.6750      2.00000
     19       4.7428      2.00000
     20       5.0475      2.00000
     21       5.0489      2.00000
     22       6.3471      2.00000
     23      10.1403     -0.00000
     24      12.7849      0.00000
     25      12.8459      0.00000
     26      15.0873      0.00000

 k-point    15 :       0.4545    0.1818    0.0000
  band No.  band energies     occupation 
      1       2.3088      2.00000
      2       2.4702      2.00000
      3       2.5500      2.00000
      4       2.5705      2.00000
      5       2.6195      2.00000
      6       2.7473      2.00000
      7       2.9046      2.00000
      8       2.9270      2.00000
      9       3.1706      2.00000
     10       3.2758      2.00000
     11       3.5509      2.00000
     12       3.6478      2.00000
     13       4.0189      2.00000
     14       4.2843      2.00000
     15       4.3024      2.00000
     16       4.3274      2.00000
     17       4.3470      2.00000
     18       4.5642      2.00000
     19       4.9696      2.00000
     20       5.0441      2.00000
     21       5.0447      2.00000
     22       5.5019      2.00000
     23      10.9683      0.00000
     24      11.8463      0.00000
     25      13.8600      0.00000
     26      14.9345      0.00000

 k-point    16 :       0.2727    0.2727    0.0000
  band No.  band energies     occupation 
      1       1.7947      2.00000
      2       2.2450      2.00000
      3       2.4283      2.00000
      4       2.4283      2.00000
      5       2.4353      2.00000
      6       2.4353      2.00000
      7       2.7018      2.00000
      8       3.0355      2.00000
      9       3.5941      2.00000
     10       3.6705      2.00000
     11       3.7378      2.00000
     12       3.7378      2.00000
     13       3.8809      2.00000
     14       4.0345      2.00000
     15       4.4481      2.00000
     16       4.6822      2.00000
     17       4.6951      2.00000
     18       4.6951      2.00000
     19       4.8245      2.00000
     20       4.8245      2.00000
     21       4.9424      2.00000
     22       8.1046      1.11687
     23       8.1046      1.11687
     24      12.5983      0.00000
     25      12.6319      0.00000
     26      15.0465      0.00000

 k-point    17 :       0.3636    0.2727    0.0000
  band No.  band energies     occupation 
      1       2.1720      2.00000
      2       2.3989      2.00000
      3       2.5481      2.00000
      4       2.6138      2.00000
      5       2.6557      2.00000
      6       2.6613      2.00000
      7       2.9098      2.00000
      8       2.9490      2.00000
      9       3.3481      2.00000
     10       3.5033      2.00000
     11       3.5493      2.00000
     12       3.5830      2.00000
     13       3.8173      2.00000
     14       4.0376      2.00000
     15       4.3089      2.00000
     16       4.4927      2.00000
     17       4.5585      2.00000
     18       4.5874      2.00000
     19       4.8209      2.00000
     20       4.8679      2.00000
     21       4.9850      2.00000
     22       6.9875      2.00000
     23       8.8453     -0.00000
     24      11.5092      0.00000
     25      13.4954      0.00000
     26      15.2752      0.00000

 k-point    18 :       0.4545    0.2727    0.0000
  band No.  band energies     occupation 
      1       2.5217      2.00000
      2       2.6057      2.00000
      3       2.6847      2.00000
      4       2.6996      2.00000
      5       2.7765      2.00000
      6       2.8244      2.00000
      7       2.9357      2.00000
      8       3.0381      2.00000
      9       3.0876      2.00000
     10       3.2535      2.00000
     11       3.3533      2.00000
     12       3.4146      2.00000
     13       4.0293      2.00000
     14       4.1936      2.00000
     15       4.2339      2.00000
     16       4.2843      2.00000
     17       4.3079      2.00000
     18       4.4081      2.00000
     19       4.8218      2.00000
     20       4.8337      2.00000
     21       5.4296      2.00000
     22       6.0853      2.00000
     23       9.6507     -0.00000
     24      10.5318     -0.00000
     25      14.4718      0.00000
     26      15.5235      0.00000

 k-point    19 :       0.3636    0.3636    0.0000
  band No.  band energies     occupation 
      1       2.4540      2.00000
      2       2.5020      2.00000
      3       2.7395      2.00000
      4       2.7395      2.00000
      5       2.8732      2.00000
      6       2.8732      2.00000
      7       2.9478      2.00000
      8       3.1025      2.00000
      9       3.1654      2.00000
     10       3.1654      2.00000
     11       3.4190      2.00000
     12       3.5368      2.00000
     13       3.9088      2.00000
     14       3.9402      2.00000
     15       4.1885      2.00000
     16       4.3905      2.00000
     17       4.3905      2.00000
     18       4.5600      2.00000
     19       4.5600      2.00000
     20       4.7172      2.00000
     21       5.4164      2.00000
     22       7.6966      2.00000
     23       7.6966      2.00000
     24      10.3678     -0.00000
     25      14.3129      0.00000
     26      15.5767      0.00000

 k-point    20 :       0.4545    0.3636    0.0000
  band No.  band energies     occupation 
      1       2.6599      2.00000
      2       2.7051      2.00000
      3       2.8275      2.00000
      4       2.8751      2.00000
      5       2.9033      2.00000
      6       2.9035      2.00000
      7       2.9651      2.00000
      8       3.1169      2.00000
      9       3.1867      2.00000
     10       3.2024      2.00000
     11       3.2068      2.00000
     12       3.4050      2.00000
     13       4.0191      2.00000
     14       4.0744      2.00000
     15       4.1189      2.00000
     16       4.2022      2.00000
     17       4.2152      2.00000
     18       4.3005      2.00000
     19       4.5766      2.00000
     20       4.6229      2.00000
     21       5.9864      2.00000
     22       6.7389      2.00000
     23       8.4816     -0.00000
     24       9.3639     -0.00000
     25      15.2513      0.00000
     26      16.0172      0.00000

 k-point    21 :       0.4545    0.4545    0.0000
  band No.  band energies     occupation 
      1       2.7360      2.00000
      2       2.7968      2.00000
      3       2.8453      2.00000
      4       2.8453      2.00000
      5       2.9595      2.00000
      6       2.9782      2.00000
      7       2.9782      2.00000
      8       3.1101      2.00000
      9       3.3065      2.00000
     10       3.3065      2.00000
     11       3.3494      2.00000
     12       3.4426      2.00000
     13       3.9216      2.00000
     14       4.0040      2.00000
     15       4.0384      2.00000
     16       4.0384      2.00000
     17       4.1782      2.00000
     18       4.3508      2.00000
     19       4.3508      2.00000
     20       4.4555      2.00000
     21       6.6603      2.00000
     22       7.4847      2.00000
     23       7.4847      2.00000
     24       8.3515     -0.00357
     25      16.1552      0.00000
     26      16.5263      0.00000

 k-point    22 :       0.0909    0.0909    0.0909
  band No.  band energies     occupation 
      1       0.7224      2.00000
      2       1.8868      2.00000
      3       1.8868      2.00000
      4       1.8868      2.00000
      5       2.0153      2.00000
      6       2.0153      2.00000
      7       2.0153      2.00000
      8       3.2734      2.00000
      9       3.3899      2.00000
     10       3.3899      2.00000
     11       4.2844      2.00000
     12       4.2844      2.00000
     13       4.9067      2.00000
     14       4.9067      2.00000
     15       4.9067      2.00000
     16       4.9446      2.00000
     17       4.9446      2.00000
     18       4.9446      2.00000
     19       5.1986      2.00000
     20       5.1986      2.00000
     21       5.1986      2.00000
     22       9.5142     -0.00000
     23       9.5142     -0.00000
     24       9.5142     -0.00000
     25      15.2679      0.00000
     26      15.2679      0.00000

 k-point    23 :       0.1818    0.0909    0.0909
  band No.  band energies     occupation 
      1       0.9611      2.00000
      2       1.9798      2.00000
      3       1.9884      2.00000
      4       1.9884      2.00000
      5       2.0927      2.00000
      6       2.1508      2.00000
      7       2.1508      2.00000
      8       3.2062      2.00000
      9       3.4589      2.00000
     10       3.4627      2.00000
     11       4.2051      2.00000
     12       4.3382      2.00000
     13       4.5832      2.00000
     14       4.5832      2.00000
     15       4.7785      2.00000
     16       4.7899      2.00000
     17       4.8166      2.00000
     18       4.8166      2.00000
     19       5.1343      2.00000
     20       5.1812      2.00000
     21       5.1812      2.00000
     22       8.3408     -0.00555
     23      10.0392     -0.00000
     24      10.0392     -0.00000
     25      15.2985      0.00000
     26      15.2986      0.00000

 k-point    24 :       0.2727    0.0909    0.0909
  band No.  band energies     occupation 
      1       1.3354      2.00000
      2       2.1123      2.00000
      3       2.1533      2.00000
      4       2.1533      2.00000
      5       2.2201      2.00000
      6       2.3553      2.00000
      7       2.3553      2.00000
      8       3.0783      2.00000
      9       3.5773      2.00000
     10       3.5819      2.00000
     11       4.1234      2.00000
     12       4.1370      2.00000
     13       4.1370      2.00000
     14       4.4232      2.00000
     15       4.5258      2.00000
     16       4.6109      2.00000
     17       4.6543      2.00000
     18       4.6543      2.00000
     19       5.0390      2.00000
     20       5.1674      2.00000
     21       5.1674      2.00000
     22       7.1030      2.00000
     23      10.7649     -0.00000
     24      10.7649     -0.00000
     25      15.0817      0.00000
     26      15.0820      0.00000

 k-point    25 :       0.3636    0.0909    0.0909
  band No.  band energies     occupation 
      1       1.7893      2.00000
      2       2.2516      2.00000
      3       2.3602      2.00000
      4       2.3602      2.00000
      5       2.3846      2.00000
      6       2.6016      2.00000
      7       2.6016      2.00000
      8       2.9145      2.00000
      9       3.6541      2.00000
     10       3.6812      2.00000
     11       3.6812      2.00000
     12       3.7437      2.00000
     13       4.1811      2.00000
     14       4.2144      2.00000
     15       4.3936      2.00000
     16       4.4657      2.00000
     17       4.4657      2.00000
     18       4.5329      2.00000
     19       4.9219      2.00000
     20       5.1601      2.00000
     21       5.1601      2.00000
     22       5.9913      2.00000
     23      11.5966      0.00000
     24      11.5966      0.00000
     25      14.2788      0.00000
     26      14.2788      0.00000

 k-point    26 :       0.4545    0.0909    0.0909
  band No.  band energies     occupation 
      1       2.1856      2.00000
      2       2.3295      2.00000
      3       2.5317      2.00000
      4       2.5317      2.00000
      5       2.5579      2.00000
      6       2.7351      2.00000
      7       2.8711      2.00000
      8       2.8711      2.00000
      9       3.2751      2.00000
     10       3.2751      2.00000
     11       3.6960      2.00000
     12       3.8954      2.00000
     13       3.9411      2.00000
     14       4.1631      2.00000
     15       4.3269      2.00000
     16       4.3269      2.00000
     17       4.5090      2.00000
     18       4.6591      2.00000
[...]
     26      13.5737      0.00000

 k-point    48 :       0.3636    0.2727    0.2727
  band No.  band energies     occupation 
      1       1.9706      2.00000
      2       2.2409      2.00000
      3       2.3128      2.00000
      4       2.3128      2.00000
      5       2.9867      2.00000
      6       2.9867      2.00000
      7       3.0826      2.00000
      8       3.4481      2.00000
      9       3.5025      2.00000
     10       3.7169      2.00000
     11       3.7461      2.00000
     12       3.7461      2.00000
     13       3.8136      2.00000
     14       3.9068      2.00000
     15       3.9068      2.00000
     16       4.0175      2.00000
     17       4.6951      2.00000
     18       4.7633      2.00000
     19       5.0600      2.00000
     20       5.0600      2.00000
     21       5.0880      2.00000
     22       7.6297      2.00000
     23       9.4209     -0.00000
     24       9.4209     -0.00000
     25      12.5568      0.00000
     26      12.5568      0.00000

 k-point    49 :       0.4545    0.2727    0.2727
  band No.  band energies     occupation 
      1       2.0673      2.00000
      2       2.1644      2.00000
      3       2.3510      2.00000
      4       2.3510      2.00000
      5       2.9671      2.00000
      6       2.9671      2.00000
      7       3.2452      2.00000
      8       3.3669      2.00000
      9       3.5578      2.00000
     10       3.6636      2.00000
     11       3.7698      2.00000
     12       3.7960      2.00000
     13       3.7960      2.00000
     14       3.8804      2.00000
     15       3.8804      2.00000
     16       3.8984      2.00000
     17       4.8713      2.00000
     18       5.0051      2.00000
     19       5.0051      2.00000
     20       5.0068      2.00000
     21       5.5144      2.00000
     22       6.4885      2.00000
     23       9.8627     -0.00000
     24       9.8627     -0.00000
     25      11.8634      0.00000
     26      11.8634      0.00000

 k-point    50 :       0.3636    0.3636    0.2727
  band No.  band energies     occupation 
      1       1.9673      2.00000
      2       2.2071      2.00000
      3       2.2071      2.00000
      4       2.2490      2.00000
      5       3.0446      2.00000
      6       3.1044      2.00000
      7       3.1044      2.00000
      8       3.4216      2.00000
      9       3.4519      2.00000
     10       3.6884      2.00000
     11       3.6884      2.00000
     12       3.7304      2.00000
     13       3.9339      2.00000
     14       3.9339      2.00000
     15       3.9741      2.00000
     16       4.4092      2.00000
     17       4.6114      2.00000
     18       5.0318      2.00000
     19       5.0558      2.00000
     20       5.0558      2.00000
     21       5.2091      2.00000
     22       8.1273      0.73533
     23       8.1273      0.73533
     24       9.5883     -0.00000
     25      11.7855      0.00000
     26      13.1820      0.00000

 k-point    51 :       0.4545    0.3636    0.2727
  band No.  band energies     occupation 
      1       2.0132      2.00000
      2       2.0986      2.00000
      3       2.1997      2.00000
      4       2.2131      2.00000
      5       3.0706      2.00000
      6       3.0866      2.00000
      7       3.2319      2.00000
      8       3.3424      2.00000
      9       3.4790      2.00000
     10       3.5634      2.00000
     11       3.6427      2.00000
     12       3.6524      2.00000
     13       4.0994      2.00000
     14       4.1042      2.00000
     15       4.1192      2.00000
     16       4.2928      2.00000
     17       4.8184      2.00000
     18       4.9781      2.00000
     19       4.9809      2.00000
     20       4.9896      2.00000
     21       5.9745      2.00000
     22       6.9677      2.00000
     23       8.7215     -0.00000
     24       9.3092     -0.00000
     25      11.7511      0.00000
     26      12.3170      0.00000

 k-point    52 :       0.4545    0.4545    0.2727
  band No.  band energies     occupation 
      1       2.0208      2.00000
      2       2.0854      2.00000
      3       2.0854      2.00000
      4       2.1238      2.00000
      5       3.1562      2.00000
      6       3.2065      2.00000
      7       3.2065      2.00000
      8       3.2994      2.00000
      9       3.4560      2.00000
     10       3.5184      2.00000
     11       3.5184      2.00000
     12       3.5456      2.00000
     13       4.3215      2.00000
     14       4.3318      2.00000
     15       4.3318      2.00000
     16       4.4868      2.00000
     17       4.7587      2.00000
     18       4.8953      2.00000
     19       4.8953      2.00000
     20       4.9079      2.00000
     21       6.7007      2.00000
     22       7.6331      2.00000
     23       7.6331      2.00000
     24       8.4474     -0.00002
     25      12.2476      0.00000
     26      13.0099      0.00000

 k-point    53 :       0.3636    0.3636    0.3636
  band No.  band energies     occupation 
      1       1.9031      2.00000
      2       2.0977      2.00000
      3       2.0977      2.00000
      4       2.0977      2.00000
      5       3.1436      2.00000
      6       3.1436      2.00000
      7       3.1436      2.00000
      8       3.3953      2.00000
      9       3.3953      2.00000
     10       3.5719      2.00000
     11       3.5719      2.00000
     12       3.5719      2.00000
     13       4.2114      2.00000
     14       4.2114      2.00000
     15       4.2114      2.00000
     16       4.8105      2.00000
     17       4.8105      2.00000
     18       5.0793      2.00000
     19       5.0793      2.00000
     20       5.0793      2.00000
     21       5.4012      2.00000
     22       8.4203     -0.00011
     23       8.4203     -0.00011
     24       8.4203     -0.00011
     25      12.2149      0.00000
     26      12.2149      0.00000

 k-point    54 :       0.4545    0.3636    0.3636
  band No.  band energies     occupation 
      1       1.9089      2.00000
      2       1.9777      2.00000
      3       2.0424      2.00000
      4       2.0424      2.00000
      5       3.1639      2.00000
      6       3.1639      2.00000
      7       3.2489      2.00000
      8       3.3364      2.00000
      9       3.3974      2.00000
     10       3.4578      2.00000
     11       3.5028      2.00000
     12       3.5028      2.00000
     13       4.4202      2.00000
     14       4.4202      2.00000
     15       4.4503      2.00000
     16       4.6748      2.00000
     17       4.9639      2.00000
     18       5.0425      2.00000
     19       5.0425      2.00000
     20       5.0566      2.00000
     21       6.2362      2.00000
     22       7.2704      2.00000
     23       8.6574     -0.00000
     24       8.6574     -0.00000
     25      11.6341      0.00000
     26      11.6341      0.00000

 k-point    55 :       0.4545    0.4545    0.3636
  band No.  band energies     occupation 
      1       1.8817      2.00000
      2       1.9283      2.00000
      3       1.9283      2.00000
      4       1.9505      2.00000
      5       3.2264      2.00000
      6       3.2535      2.00000
      7       3.2535      2.00000
      8       3.3204      2.00000
      9       3.3572      2.00000
     10       3.4007      2.00000
     11       3.4007      2.00000
     12       3.4144      2.00000
     13       4.6669      2.00000
     14       4.6899      2.00000
     15       4.6899      2.00000
     16       4.8804      2.00000
     17       4.9253      2.00000
     18       5.0205      2.00000
     19       5.0243      2.00000
     20       5.0243      2.00000
     21       6.8703      2.00000
     22       7.7397      2.00000
     23       7.7397      2.00000
     24       8.2791     -0.03922
     25      11.5925      0.00000
     26      12.0790      0.00000

 k-point    56 :       0.4545    0.4545    0.4545
  band No.  band energies     occupation 
      1       1.8244      2.00000
      2       1.8484      2.00000
      3       1.8484      2.00000
      4       1.8484      2.00000
      5       3.2838      2.00000
      6       3.2838      2.00000
      7       3.2838      2.00000
      8       3.3163      2.00000
      9       3.3163      2.00000
     10       3.3359      2.00000
     11       3.3359      2.00000
     12       3.3359      2.00000
     13       4.9284      2.00000
     14       4.9284      2.00000
     15       4.9284      2.00000
     16       5.0309      2.00000
     17       5.0309      2.00000
     18       5.0637      2.00000
     19       5.0637      2.00000
     20       5.0637      2.00000
     21       7.2719      2.00000
     22       7.8274      2.00044
     23       7.8274      2.00044
     24       7.8274      2.00044
     25      11.5491      0.00000
     26      11.5491      0.00000


--------------------------------------------------------------------------------------------------------


 soft charge-density along one line, spin component           1
         0         1         2         3         4         5         6         7         8         9
 total charge-density along one line
 
 pseudopotential strength for first ion, spin component:           1
 -4.261   0.000   0.000   0.000  -0.000  -4.484   0.000   0.000
  0.000  -4.261   0.000  -0.000  -0.000   0.000  -4.484   0.000
  0.000   0.000  -4.251  -0.000   0.000   0.000   0.000  -4.474
  0.000  -0.000  -0.000  -4.261   0.000   0.000  -0.000  -0.000
 -0.000  -0.000   0.000   0.000  -4.251  -0.000  -0.000   0.000
 -4.484   0.000   0.000   0.000  -0.000  -4.673   0.000   0.000
  0.000  -4.484   0.000  -0.000  -0.000   0.000  -4.673   0.000
  0.000   0.000  -4.474  -0.000   0.000   0.000   0.000  -4.663
  0.000  -0.000  -0.000  -4.484   0.000   0.000  -0.000  -0.000
 -0.000  -0.000   0.000   0.000  -4.474  -0.000  -0.000   0.000
  0.000  -0.000  -0.000  -0.000   0.000   0.000  -0.000  -0.000
  0.000  -0.000  -0.000  -0.000   0.000   0.000  -0.000  -0.000
  0.000   0.000  -0.000  -0.000  -0.000   0.000   0.000  -0.000
 -0.000   0.000   0.000   0.000   0.000  -0.000   0.000   0.000
  0.000  -0.000  -0.000   0.000   0.000   0.000  -0.000  -0.000
  0.000   0.000  -0.000  -0.000  -0.000   0.000   0.000  -0.000
 -0.000   0.000   0.000   0.000   0.000  -0.000   0.000   0.000
  0.000  -0.000  -0.000   0.000   0.000   0.000  -0.000  -0.000
 total augmentation occupancy for first ion, spin component:           1
  3.391   0.000   0.000   0.000  -0.000  -1.410   0.000  -0.000  -0.000  -0.000   0.000   0.000   0.000   0.000  -0.000   0.000
 -0.000   3.391   0.000  -0.000   0.000  -0.000  -1.410  -0.000   0.000  -0.000  -0.000  -0.000   0.000   0.000   0.000  -0.000
 -0.000  -0.000   3.399  -0.000   0.000  -0.000   0.000  -1.287   0.000   0.000  -0.000  -0.000  -0.000   0.000   0.000   0.000
  0.000  -0.000   0.000   3.391  -0.000   0.000  -0.000  -0.000  -1.410   0.000   0.000  -0.000   0.000  -0.000   0.000  -0.000
  0.000   0.000   0.000  -0.000   3.399   0.000  -0.000   0.000  -0.000  -1.287  -0.000   0.000  -0.000   0.000   0.000   0.000
 -1.410   0.000  -0.000  -0.000   0.000   1.374  -0.000  -0.000  -0.000  -0.000  -0.000   0.000   0.000  -0.000  -0.000   0.000
  0.000  -1.410   0.000  -0.000  -0.000   0.000   1.374  -0.000  -0.000   0.000  -0.000  -0.000   0.000   0.000  -0.000   0.000
 -0.000  -0.000  -1.287   0.000   0.000  -0.000  -0.000   1.141  -0.000   0.000  -0.000   0.000  -0.000  -0.000   0.000  -0.000
 -0.000   0.000   0.000  -1.410  -0.000  -0.000   0.000  -0.000   1.374   0.000   0.000   0.000   0.000  -0.000   0.000   0.000
  0.000   0.000   0.000   0.000  -1.287  -0.000   0.000  -0.000   0.000   1.141   0.000   0.000  -0.000  -0.000  -0.000   0.000
  0.000   0.000  -0.000   0.000  -0.000  -0.000  -0.000  -0.000   0.000   0.000   2.124  -0.393   0.000   0.000   0.000   0.000
  0.000  -0.000  -0.000  -0.000   0.000  -0.000  -0.000   0.000   0.000   0.000  -0.393   0.090   0.000   0.000   0.000  -0.000
  0.000   0.000   0.000   0.000  -0.000   0.000   0.000  -0.000   0.000   0.000   0.000   0.000   0.163  -0.000  -0.000  -0.010
  0.000   0.000   0.000  -0.000   0.000  -0.000   0.000  -0.000  -0.000  -0.000   0.000   0.000  -0.000   0.163   0.000   0.000
 -0.000   0.000   0.000   0.000   0.000  -0.000  -0.000   0.000   0.000   0.000   0.000   0.000  -0.000  -0.000   0.163   0.000
  0.000  -0.000   0.000  -0.000   0.000   0.000   0.000   0.000   0.000  -0.000   0.000  -0.000  -0.010   0.000   0.000   0.001
  0.000   0.000   0.000   0.000   0.000   0.000  -0.000  -0.000   0.000  -0.000  -0.000   0.000  -0.000  -0.010   0.000   0.000
  0.000  -0.000   0.000  -0.000  -0.000   0.000   0.000   0.000   0.000  -0.000   0.000  -0.000  -0.000  -0.000  -0.010   0.000


------------------------ aborting loop because EDIFF is reached ----------------------------------------


 


 total charge     
 
# of ion     s       p       d       tot
----------------------------------------
  1        0.412   0.281   9.158   9.851
  2        0.412   0.281   9.158   9.851
  3        0.412   0.281   9.158   9.851
  4        0.412   0.281   9.158   9.851
------------------------------------------------
tot        1.648   1.124  36.633  39.405
 
    CHARGE:  cpu time    0.17: real time    0.17
    FORLOC:  cpu time    0.00: real time    0.00
    FORNL :  cpu time    0.70: real time    0.70
    STRESS:  cpu time    2.09: real time    2.10
    FORCOR:  cpu time    0.02: real time    0.02
    FORHAR:  cpu time    0.01: real time    0.01
    MIXING:  cpu time    0.00: real time    0.00
    OFIELD:  cpu time    0.00: real time    0.00

  DFT-D2 method for vdW energy calculation
  -------------------------------------------------------------------

  Parameters of vdW forcefield:
         C6(Jnm^6/mol)     R0(A)
   -----------------------------
   Ag       5.481          1.819

  IVDW =   1
  VDW_RADIUS =    40.000 A
  VDW_S6 =     0.750
  VDW_SR =     1.000
  VDW_D =    20.000
  LVDW_EWALD = F

  Number of pair interactions contributing to vdW energy:   38176
  Edisp (eV):   -0.36306
    FORVDW:  cpu time    0.01: real time    0.01

  FORCE on cell =-STRESS in cart. coord.  units (eV):
  Direction    XX          YY          ZZ          XY          YZ          ZX
  --------------------------------------------------------------------------------------
  Alpha Z   193.75628   193.75628   193.75628
  Ewald   -1290.77495 -1290.77495 -1290.77495     0.00000     0.00000    -0.00000
  Hartree   259.43598   259.43598   259.43598    -0.00000    -0.00000    -0.00000
  E(xc)    -232.52008  -232.52008  -232.52008    -0.00000     0.00000     0.00000
  Local     189.59504   189.59504   189.59504     0.00000     0.00000     0.00000
  n-local   -22.62343   -36.65448   -39.77971     0.37156     4.10497     1.43106
  augment   368.37568   368.37568   368.37568     0.00000    -0.00000    -0.00000
  Kinetic   553.06963   544.62751   539.34299    -3.77251     0.32109    -1.22598
  Fock        0.00000     0.00000     0.00000     0.00000     0.00000     0.00000
  vdW        -0.51612    -0.51612    -0.51612    -0.00000     0.00000     0.00000
  -------------------------------------------------------------------------------------
  Total       0.01266     0.01266     0.01266    -0.00000     0.00000     0.00000
  in kB       0.28883     0.28883     0.28883    -0.00000     0.00000     0.00000
  external pressure =        0.29 kB  Pullay stress =        0.00 kB


 VOLUME and BASIS-vectors are now :
 -----------------------------------------------------------------------------
  energy-cutoff  :      700.00
  volume of cell :       70.24
      direct lattice vectors                 reciprocal lattice vectors
     4.125970570  0.000000000  0.000000000     0.242367216  0.000000000  0.000000000
     0.000000000  4.125970570  0.000000000     0.000000000  0.242367216  0.000000000
     0.000000000  0.000000000  4.125970570     0.000000000  0.000000000  0.242367216

  length of vectors
     4.125970570  4.125970570  4.125970570     0.242367216  0.242367216  0.242367216


 FORCES acting on ions
    electron-ion (+dipol)            ewald-force                    non-local-force                 convergence-correction
 -----------------------------------------------------------------------------------------------
   -.572E-14 0.732E-14 -.113E-12   0.158E-13 -.250E-14 -.100E-13   0.165E-22 -.331E-22 0.000E+00   -.277E-13 -.252E-14 0.210E-13
   -.501E-14 0.416E-12 0.312E-12   0.161E-13 0.637E-14 0.384E-14   0.199E-22 0.132E-22 0.000E+00   -.295E-13 -.444E-13 -.711E-13
   0.408E-12 0.481E-14 0.643E-11   -.166E-13 -.678E-14 0.376E-14   0.188E-22 -.662E-23 0.132E-22   -.201E-13 0.298E-14 -.790E-13
   0.410E-12 0.305E-11 0.187E-11   -.163E-13 0.209E-14 0.349E-15   0.000E+00 0.993E-23 0.662E-23   -.243E-13 -.424E-13 0.162E-13
 -----------------------------------------------------------------------------------------------
   0.807E-12 0.348E-11 0.850E-11   -.980E-15 -.807E-15 -.210E-14   0.551E-22 -.165E-22 0.199E-22   -.101E-12 -.863E-13 -.113E-12
 
 
 POSITION                                       TOTAL-FORCE (eV/Angst)
 -----------------------------------------------------------------------------------
      0.00000      0.00000      0.00000        -0.000000     -0.000000     -0.000000
      0.00000      2.06299      2.06299        -0.000000     -0.000000     -0.000000
      2.06299      0.00000      2.06299         0.000000     -0.000000      0.000000
      2.06299      2.06299      0.00000         0.000000      0.000000      0.000000
 -----------------------------------------------------------------------------------
    total drift:                                0.000000      0.000000      0.000000


--------------------------------------------------------------------------------------------------------



  FREE ENERGIE OF THE ION-ELECTRON SYSTEM (eV)
  ---------------------------------------------------
  free  energy   TOTEN  =       -11.23949637 eV

  energy  without entropy=      -11.23851853  energy(sigma->0) =      -11.23917043
 


--------------------------------------------------------------------------------------------------------


    POTLOK:  cpu time    0.03: real time    0.03


--------------------------------------------------------------------------------------------------------




--------------------------------------------------------------------------------------------------------


  
 reached required accuracy - stopping structural energy minimisation
 writing wavefunctions
     LOOP+:  cpu time   26.66: real time   28.14
    4ORBIT:  cpu time    0.00: real time    0.00
 


 total charge     
 
# of ion     s       p       d       tot
----------------------------------------
  1        0.412   0.281   9.158   9.851
  2        0.412   0.281   9.158   9.851
  3        0.412   0.281   9.158   9.851
  4        0.412   0.281   9.158   9.851
------------------------------------------------
tot        1.648   1.124  36.633  39.405
 

 total amount of memory used by VASP on root node    38300. kBytes
========================================================================

   base      :      30000. kBytes
   nonlr-proj:        664. kBytes
   fftplans  :        659. kBytes
   grid      :        929. kBytes
   one-center:         15. kBytes
   wavefun   :       6033. kBytes
 
  
  
 General timing and accounting informations for this job:
 ========================================================
  
                  Total CPU time used (sec):       29.222
                            User time (sec):       28.729
                          System time (sec):        0.493
                         Elapsed time (sec):       31.158
  
                   Maximum memory used (kb):       45732.
                   Average memory used (kb):           0.
  
                          Minor page faults:        18773
                          Major page faults:            6
                 Voluntary context switches:         1228
