 vasp.5.3.5 31Mar14 (build Apr 25 2014 16:28:52) complex                        
  
 executed on             LinuxIFC date 2019.02.22  15:33:04
 running on   12 total cores
 distrk:  each k-point on   12 cores,    1 groups
 distr:  one band on NCORES_PER_BAND=   6 cores,    2 groups


--------------------------------------------------------------------------------------------------------


 INCAR:
 POTCAR:    PAW_PBE Co 02Aug2007                  
 POTCAR:    PAW_PBE Co 02Aug2007                  
   VRHFIN =Co: d8 s1                                                            
   LEXCH  = PE                                                                  
   EATOM  =   813.3670 eV,   59.7808 Ry                                         
                                                                                
   TITEL  = PAW_PBE Co 02Aug2007                                                
   LULTRA =        F    use ultrasoft PP ?                                      
   IUNSCR =        1    unscreen: 0-lin 1-nonlin 2-no                           
   RPACOR =    2.000    partial core radius                                     
   POMASS =   58.933; ZVAL   =    9.000    mass and valenz                      
   RCORE  =    2.300    outmost cutoff radius                                   
   RWIGS  =    2.460; RWIGS  =    1.302    wigner-seitz radius (au A)           
   ENMAX  =  267.968; ENMIN  =  200.976 eV                                      
   RCLOC  =    1.203    cutoff for local pot                                    
   LCOR   =        T    correct aug charges                                     
   LPAW   =        T    paw PP                                                  
   EAUG   =  477.818                                                            
   DEXC   =    0.000                                                            
   RMAX   =    2.360    core radius for proj-oper                               
   RAUG   =    1.300    factor for augmentation sphere                          
   RDEP   =    2.393    radius for radial grids                                 
   RDEPT  =    1.864    core radius for aug-charge                              
                                                                                
   Atomic configuration                                                         
    9 entries                                                                   
     n  l   j            E        occ.                                          
     1  0  0.50     -7587.6674   2.0000                                         
     2  0  0.50      -893.6084   2.0000                                         
     2  1  1.50      -764.5805   6.0000                                         
     3  0  0.50       -97.5973   2.0000                                         
     3  1  1.50       -60.9648   6.0000                                         
     3  2  2.50        -4.2382   8.0000                                         
     4  0  0.50        -4.3746   1.0000                                         
     4  1  1.50        -4.0817   0.0000                                         
     4  3  2.50        -1.3606   0.0000                                         
   Description                                                                  
     l       E           TYP  RCUT    TYP  RCUT                                 
     2     -4.2382362     23  2.300                                             
     2     -5.5988188     23  2.300                                             
     0     -4.3745797     23  2.300                                             
     0      5.7660125     23  2.300                                             
     1     -2.7211652     23  2.300                                             
     1     16.9860234     23  2.300                                             
  local pseudopotential read in
  partial core-charges read in
  partial kinetic energy density read in
  atomic valenz-charges read in
  non local Contribution for L=           2  read in
    real space projection operators read in
  non local Contribution for L=           2  read in
    real space projection operators read in
  non local Contribution for L=           0  read in
    real space projection operators read in
  non local Contribution for L=           0  read in
    real space projection operators read in
  non local Contribution for L=           1  read in
    real space projection operators read in
  non local Contribution for L=           1  read in
    real space projection operators read in
    PAW grid and wavefunctions read in
 
   number of l-projection  operators is LMAX  =           6
   number of lm-projection operators is LMMAX =          18
 

 ----------------------------------------------------------------------------- 
|                                                                             |
|  ADVICE TO THIS USER RUNNING 'VASP/VAMP'   (HEAR YOUR MASTER'S VOICE ...):  |
|                                                                             |
|      You have a (more or less) 'small supercell' and for smaller cells      |
|      it is recommended  to use the reciprocal-space projection scheme!      |
|      The real space optimization is not  efficient for small cells and it   |
|      is also less accurate ...                                              |
|      Therefore set LREAL=.FALSE. in the  INCAR file                         |
|                                                                             |
 ----------------------------------------------------------------------------- 

 Optimization of the real space projectors (new method)

 maximal supplied QI-value         = 16.25
 optimisation between [QCUT,QGAM] = [ 10.24, 20.48] = [ 29.35,117.42] Ry 
 Optimized for a Real-space Cutoff    1.34 Angstroem

   l    n(q)    QCUT    max X(q) W(low)/X(q) W(high)/X(q)  e(spline) 
   2      7    10.239    65.824    0.41E-03    0.10E-02    0.11E-06
   2      7    10.239    61.429    0.41E-03    0.10E-02    0.11E-06
   0      8    10.239    56.174    0.42E-03    0.17E-03    0.96E-07
   0      8    10.239    31.263    0.38E-03    0.16E-03    0.87E-07
   1      8    10.239    19.828    0.20E-03    0.56E-03    0.13E-06
   1      8    10.239    15.139    0.15E-03    0.46E-03    0.11E-06
  PAW_PBE Co 02Aug2007                  :
 energy of atom  1       EATOM= -813.3670
 kinetic energy error for atom=    0.0093 (will be added to EATOM!!)
 
 
 POSCAR: Co                                      
  positions in cartesian coordinates
  No initial velocities read in
 exchange correlation table for  LEXCH =        8
   RHO(1)=    0.500       N(1)  =     2000
   RHO(2)=  100.500       N(2)  =     4000
 


--------------------------------------------------------------------------------------------------------


 ion  position               nearest neighbor table
   1  0.333  0.667  0.250-   2 2.45   2 2.45   2 2.45   2 2.45   2 2.45   2 2.45
   2  0.667  0.333  0.750-   1 2.45   1 2.45   1 2.45   1 2.45   1 2.45   1 2.45
 
  LATTYP: Found a hexagonal cell.
 ALAT       =     2.5055708885
 C/A-ratio  =     1.5823784966
  
  Lattice vectors:
  
 A1 = (   2.5055708885,   0.0000000000,   0.0000000000)
 A2 = (  -1.2527854443,   2.1698880404,   0.0000000000)
 A3 = (   0.0000000000,   0.0000000000,   3.9647614956)


Analysis of symmetry for initial positions (statically):
=====================================================================
 Subroutine PRICEL returns:
 Original cell was already a primitive cell.
 

 Routine SETGRP: Setting up the symmetry group for a 
 hexagonal supercell.


 Subroutine GETGRP returns: Found 24 space group operations
 (whereof 12 operations were pure point group operations)
 out of a pool of 24 trial point group operations.


The static configuration has the point symmetry D_3d.
 The point group associated with its full space group is D_6h.


Analysis of symmetry for dynamics (positions and initial velocities):
=====================================================================
 Subroutine PRICEL returns:
 Original cell was already a primitive cell.
 

 Routine SETGRP: Setting up the symmetry group for a 
 hexagonal supercell.


 Subroutine GETGRP returns: Found 24 space group operations
 (whereof 12 operations were pure point group operations)
 out of a pool of 24 trial point group operations.


The dynamic configuration has the point symmetry D_3d.
 The point group associated with its full space group is D_6h.


Analysis of magnetic symmetry:
=====================================================================
 Subroutine PRICEL returns:
 Original cell was already a primitive cell.
 

 Subroutine MAGSYM returns: Found 24 space group operations
 (whereof 12 operations were pure point group operations)
 out of a pool of 24 trial space group operations
 (whereof 12 operations were pure point group operations)
 and found also     1 'primitive' translations


The magnetic configuration has the point symmetry D_3d.
 The point group associated with its full space group is D_6h.
 
 
 KPOINTS: K-points                                

Automatic generation of k-mesh.
Space group operators:
 irot       det(A)        alpha          n_x          n_y          n_z        tau_x        tau_y        tau_z
    1     1.000000     0.000000     1.000000     0.000000     0.000000     0.000000     0.000000     0.000000
    2    -1.000000     0.000000     1.000000     0.000000     0.000000     0.000000     0.000000     0.000000
    3     1.000000   120.000000     0.000000     0.000000    -1.000000     0.000000     0.000000     0.000000
    4    -1.000000   120.000000     0.000000     0.000000    -1.000000     0.000000     0.000000     0.000000
    5     1.000000   120.000000     0.000000     0.000000     1.000000     0.000000     0.000000     0.000000
    6    -1.000000   120.000000     0.000000     0.000000     1.000000     0.000000     0.000000     0.000000
    7     1.000000   180.000000     1.000000     0.000000     0.000000     0.000000     0.000000     0.000000
    8    -1.000000   180.000000     1.000000     0.000000     0.000000     0.000000     0.000000     0.000000
    9     1.000000   180.000000     0.500000    -0.866025     0.000000     0.000000     0.000000     0.000000
   10    -1.000000   180.000000     0.500000    -0.866025     0.000000     0.000000     0.000000     0.000000
   11     1.000000   180.000000    -0.500000    -0.866025     0.000000     0.000000     0.000000     0.000000
   12    -1.000000   180.000000    -0.500000    -0.866025     0.000000     0.000000     0.000000     0.000000
   13     1.000000    60.000000     0.000000     0.000000    -1.000000     0.000000     0.000000     0.500000
   14    -1.000000    60.000000     0.000000     0.000000    -1.000000     0.000000     0.000000     0.500000
   15     1.000000   180.000000     0.000000     0.000000     1.000000     0.000000     0.000000     0.500000
   16    -1.000000   180.000000     0.000000     0.000000     1.000000     0.000000     0.000000     0.500000
   17     1.000000    60.000000     0.000000     0.000000     1.000000     0.000000     0.000000     0.500000
   18    -1.000000    60.000000     0.000000     0.000000     1.000000     0.000000     0.000000     0.500000
   19     1.000000   180.000000     0.866025    -0.500000     0.000000     0.000000     0.000000     0.500000
   20    -1.000000   180.000000     0.866025    -0.500000     0.000000     0.000000     0.000000     0.500000
   21     1.000000   180.000000     0.000000     1.000000     0.000000     0.000000     0.000000     0.500000
   22    -1.000000   180.000000     0.000000     1.000000     0.000000     0.000000     0.000000     0.500000
   23     1.000000   180.000000     0.866025     0.500000     0.000000     0.000000     0.000000     0.500000
   24    -1.000000   180.000000     0.866025     0.500000     0.000000     0.000000     0.000000     0.500000
 
 Subroutine IBZKPT returns following result:
 ===========================================
 
 Found    216 irreducible k-points:
 
 Following reciprocal coordinates:
            Coordinates               Weight
  0.000000  0.000000  0.000000      1.000000
  0.066667  0.000000  0.000000      6.000000
  0.133333  0.000000  0.000000      6.000000
  0.200000 -0.000000  0.000000      6.000000
  0.266667 -0.000000  0.000000      6.000000
  0.333333  0.000000  0.000000      6.000000
  0.400000 -0.000000  0.000000      6.000000
  0.466667  0.000000  0.000000      6.000000
  0.066667  0.066667  0.000000      6.000000
  0.133333  0.066667  0.000000     12.000000
  0.200000  0.066667  0.000000     12.000000
  0.266667  0.066667  0.000000     12.000000
  0.333333  0.066667  0.000000     12.000000
  0.400000  0.066667  0.000000     12.000000
  0.466667  0.066667  0.000000      6.000000
  0.133333  0.133333  0.000000      6.000000
  0.200000  0.133333  0.000000     12.000000
  0.266667  0.133333  0.000000     12.000000
  0.333333  0.133333  0.000000     12.000000
  0.400000  0.133333  0.000000     12.000000
  0.200000  0.200000  0.000000      6.000000
  0.266667  0.200000  0.000000     12.000000
  0.333333  0.200000  0.000000     12.000000
  0.400000  0.200000  0.000000      6.000000
  0.266667  0.266667  0.000000      6.000000
  0.333333  0.266667  0.000000     12.000000
  0.333333  0.333333  0.000000      2.000000
  0.000000  0.000000  0.066667      2.000000
  0.066667  0.000000  0.066667     12.000000
  0.133333  0.000000  0.066667     12.000000
  0.200000 -0.000000  0.066667     12.000000
  0.266667 -0.000000  0.066667     12.000000
  0.333333  0.000000  0.066667     12.000000
  0.400000 -0.000000  0.066667     12.000000
  0.466667  0.000000  0.066667     12.000000
  0.066667  0.066667  0.066667     12.000000
  0.133333  0.066667  0.066667     24.000000
  0.200000  0.066667  0.066667     24.000000
  0.266667  0.066667  0.066667     24.000000
  0.333333  0.066667  0.066667     24.000000
  0.400000  0.066667  0.066667     24.000000
  0.466667  0.066667  0.066667     12.000000
  0.133333  0.133333  0.066667     12.000000
  0.200000  0.133333  0.066667     24.000000
  0.266667  0.133333  0.066667     24.000000
  0.333333  0.133333  0.066667     24.000000
  0.400000  0.133333  0.066667     24.000000
  0.200000  0.200000  0.066667     12.000000
  0.266667  0.200000  0.066667     24.000000
  0.333333  0.200000  0.066667     24.000000
  0.400000  0.200000  0.066667     12.000000
  0.266667  0.266667  0.066667     12.000000
  0.333333  0.266667  0.066667     24.000000
  0.333333  0.333333  0.066667      4.000000
  0.000000  0.000000  0.133333      2.000000
  0.066667  0.000000  0.133333     12.000000
  0.133333  0.000000  0.133333     12.000000
  0.200000 -0.000000  0.133333     12.000000
  0.266667 -0.000000  0.133333     12.000000
  0.333333  0.000000  0.133333     12.000000
  0.400000 -0.000000  0.133333     12.000000
  0.466667  0.000000  0.133333     12.000000
  0.066667  0.066667  0.133333     12.000000
  0.133333  0.066667  0.133333     24.000000
  0.200000  0.066667  0.133333     24.000000
  0.266667  0.066667  0.133333     24.000000
  0.333333  0.066667  0.133333     24.000000
  0.400000  0.066667  0.133333     24.000000
  0.466667  0.066667  0.133333     12.000000
  0.133333  0.133333  0.133333     12.000000
  0.200000  0.133333  0.133333     24.000000
  0.266667  0.133333  0.133333     24.000000
  0.333333  0.133333  0.133333     24.000000
  0.400000  0.133333  0.133333     24.000000
  0.200000  0.200000  0.133333     12.000000
  0.266667  0.200000  0.133333     24.000000
  0.333333  0.200000  0.133333     24.000000
  0.400000  0.200000  0.133333     12.000000
  0.266667  0.266667  0.133333     12.000000
  0.333333  0.266667  0.133333     24.000000
  0.333333  0.333333  0.133333      4.000000
  0.000000  0.000000  0.200000      2.000000
  0.066667  0.000000  0.200000     12.000000
  0.133333  0.000000  0.200000     12.000000
  0.200000 -0.000000  0.200000     12.000000
  0.266667 -0.000000  0.200000     12.000000
  0.333333  0.000000  0.200000     12.000000
  0.400000 -0.000000  0.200000     12.000000
  0.466667  0.000000  0.200000     12.000000
  0.066667  0.066667  0.200000     12.000000
  0.133333  0.066667  0.200000     24.000000
  0.200000  0.066667  0.200000     24.000000
  0.266667  0.066667  0.200000     24.000000
  0.333333  0.066667  0.200000     24.000000
  0.400000  0.066667  0.200000     24.000000
  0.466667  0.066667  0.200000     12.000000
  0.133333  0.133333  0.200000     12.000000
  0.200000  0.133333  0.200000     24.000000
  0.266667  0.133333  0.200000     24.000000
  0.333333  0.133333  0.200000     24.000000
  0.400000  0.133333  0.200000     24.000000
  0.200000  0.200000  0.200000     12.000000
  0.266667  0.200000  0.200000     24.000000
  0.333333  0.200000  0.200000     24.000000
  0.400000  0.200000  0.200000     12.000000
  0.266667  0.266667  0.200000     12.000000
  0.333333  0.266667  0.200000     24.000000
  0.333333  0.333333  0.200000      4.000000
  0.000000  0.000000  0.266667      2.000000
  0.066667  0.000000  0.266667     12.000000
  0.133333  0.000000  0.266667     12.000000
  0.200000 -0.000000  0.266667     12.000000
  0.266667 -0.000000  0.266667     12.000000
  0.333333  0.000000  0.266667     12.000000
  0.400000 -0.000000  0.266667     12.000000
  0.466667  0.000000  0.266667     12.000000
  0.066667  0.066667  0.266667     12.000000
  0.133333  0.066667  0.266667     24.000000
  0.200000  0.066667  0.266667     24.000000
  0.266667  0.066667  0.266667     24.000000
  0.333333  0.066667  0.266667     24.000000
  0.400000  0.066667  0.266667     24.000000
  0.466667  0.066667  0.266667     12.000000
  0.133333  0.133333  0.266667     12.000000
  0.200000  0.133333  0.266667     24.000000
  0.266667  0.133333  0.266667     24.000000
  0.333333  0.133333  0.266667     24.000000
  0.400000  0.133333  0.266667     24.000000
  0.200000  0.200000  0.266667     12.000000
  0.266667  0.200000  0.266667     24.000000
  0.333333  0.200000  0.266667     24.000000
  0.400000  0.200000  0.266667     12.000000
  0.266667  0.266667  0.266667     12.000000
  0.333333  0.266667  0.266667     24.000000
  0.333333  0.333333  0.266667      4.000000
  0.000000  0.000000  0.333333      2.000000
  0.066667  0.000000  0.333333     12.000000
  0.133333  0.000000  0.333333     12.000000
  0.200000 -0.000000  0.333333     12.000000
  0.266667 -0.000000  0.333333     12.000000
  0.333333  0.000000  0.333333     12.000000
  0.400000 -0.000000  0.333333     12.000000
  0.466667  0.000000  0.333333     12.000000
  0.066667  0.066667  0.333333     12.000000
  0.133333  0.066667  0.333333     24.000000
  0.200000  0.066667  0.333333     24.000000
  0.266667  0.066667  0.333333     24.000000
  0.333333  0.066667  0.333333     24.000000
  0.400000  0.066667  0.333333     24.000000
  0.466667  0.066667  0.333333     12.000000
  0.133333  0.133333  0.333333     12.000000
  0.200000  0.133333  0.333333     24.000000
  0.266667  0.133333  0.333333     24.000000
  0.333333  0.133333  0.333333     24.000000
  0.400000  0.133333  0.333333     24.000000
  0.200000  0.200000  0.333333     12.000000
  0.266667  0.200000  0.333333     24.000000
  0.333333  0.200000  0.333333     24.000000
  0.400000  0.200000  0.333333     12.000000
  0.266667  0.266667  0.333333     12.000000
  0.333333  0.266667  0.333333     24.000000
  0.333333  0.333333  0.333333      4.000000
  0.000000  0.000000  0.400000      2.000000
  0.066667  0.000000  0.400000     12.000000
  0.133333  0.000000  0.400000     12.000000
  0.200000 -0.000000  0.400000     12.000000
  0.266667 -0.000000  0.400000     12.000000
  0.333333  0.000000  0.400000     12.000000
  0.400000 -0.000000  0.400000     12.000000
  0.466667  0.000000  0.400000     12.000000
  0.066667  0.066667  0.400000     12.000000
  0.133333  0.066667  0.400000     24.000000
  0.200000  0.066667  0.400000     24.000000
  0.266667  0.066667  0.400000     24.000000
  0.333333  0.066667  0.400000     24.000000
  0.400000  0.066667  0.400000     24.000000
  0.466667  0.066667  0.400000     12.000000
  0.133333  0.133333  0.400000     12.000000
  0.200000  0.133333  0.400000     24.000000
  0.266667  0.133333  0.400000     24.000000
  0.333333  0.133333  0.400000     24.000000
  0.400000  0.133333  0.400000     24.000000
  0.200000  0.200000  0.400000     12.000000
  0.266667  0.200000  0.400000     24.000000
  0.333333  0.200000  0.400000     24.000000
  0.400000  0.200000  0.400000     12.000000
  0.266667  0.266667  0.400000     12.000000
  0.333333  0.266667  0.400000     24.000000
  0.333333  0.333333  0.400000      4.000000
  0.000000  0.000000  0.466667      2.000000
  0.066667  0.000000  0.466667     12.000000
  0.133333  0.000000  0.466667     12.000000
  0.200000 -0.000000  0.466667     12.000000
  0.266667 -0.000000  0.466667     12.000000
  0.333333  0.000000  0.466667     12.000000
  0.400000 -0.000000  0.466667     12.000000
  0.466667  0.000000  0.466667     12.000000
  0.066667  0.066667  0.466667     12.000000
  0.133333  0.066667  0.466667     24.000000
  0.200000  0.066667  0.466667     24.000000
  0.266667  0.066667  0.466667     24.000000
  0.333333  0.066667  0.466667     24.000000
  0.400000  0.066667  0.466667     24.000000
  0.466667  0.066667  0.466667     12.000000
  0.133333  0.133333  0.466667     12.000000
  0.200000  0.133333  0.466667     24.000000
  0.266667  0.133333  0.466667     24.000000
  0.333333  0.133333  0.466667     24.000000
  0.400000  0.133333  0.466667     24.000000
  0.200000  0.200000  0.466667     12.000000
  0.266667  0.200000  0.466667     24.000000
  0.333333  0.200000  0.466667     24.000000
  0.400000  0.200000  0.466667     12.000000
  0.266667  0.266667  0.466667     12.000000
  0.333333  0.266667  0.466667     24.000000
  0.333333  0.333333  0.466667      4.000000
 
 Following cartesian coordinates:
            Coordinates               Weight
  0.000000  0.000000  0.000000      1.000000
  0.026607  0.015362  0.000000      6.000000
  0.053215  0.030724  0.000000      6.000000
  0.079822  0.046085  0.000000      6.000000
  0.106430  0.061447  0.000000      6.000000
  0.133037  0.076809  0.000000      6.000000
  0.159644  0.092171  0.000000      6.000000
  0.186252  0.107532  0.000000      6.000000
  0.026607  0.046085  0.000000      6.000000
  0.053215  0.061447  0.000000     12.000000
  0.079822  0.076809  0.000000     12.000000
  0.106430  0.092171  0.000000     12.000000
  0.133037  0.107532  0.000000     12.000000
  0.159644  0.122894  0.000000     12.000000
  0.186252  0.138256  0.000000      6.000000
  0.053215  0.092171  0.000000      6.000000
  0.079822  0.107532  0.000000     12.000000
  0.106430  0.122894  0.000000     12.000000
  0.133037  0.138256  0.000000     12.000000
  0.159644  0.153618  0.000000     12.000000
  0.079822  0.138256  0.000000      6.000000
  0.106430  0.153618  0.000000     12.000000
  0.133037  0.168980  0.000000     12.000000
  0.159644  0.184341  0.000000      6.000000
  0.106430  0.184341  0.000000      6.000000
  0.133037  0.199703  0.000000     12.000000
  0.133037  0.230427  0.000000      2.000000
  0.000000  0.000000  0.016815      2.000000
  0.026607  0.015362  0.016815     12.000000
  0.053215  0.030724  0.016815     12.000000
  0.079822  0.046085  0.016815     12.000000
  0.106430  0.061447  0.016815     12.000000
  0.133037  0.076809  0.016815     12.000000
  0.159644  0.092171  0.016815     12.000000
  0.186252  0.107532  0.016815     12.000000
  0.026607  0.046085  0.016815     12.000000
  0.053215  0.061447  0.016815     24.000000
  0.079822  0.076809  0.016815     24.000000
  0.106430  0.092171  0.016815     24.000000
  0.133037  0.107532  0.016815     24.000000
  0.159644  0.122894  0.016815     24.000000
  0.186252  0.138256  0.016815     12.000000
  0.053215  0.092171  0.016815     12.000000
  0.079822  0.107532  0.016815     24.000000
  0.106430  0.122894  0.016815     24.000000
  0.133037  0.138256  0.016815     24.000000
  0.159644  0.153618  0.016815     24.000000
  0.079822  0.138256  0.016815     12.000000
  0.106430  0.153618  0.016815     24.000000
  0.133037  0.168980  0.016815     24.000000
  0.159644  0.184341  0.016815     12.000000
  0.106430  0.184341  0.016815     12.000000
  0.133037  0.199703  0.016815     24.000000
  0.133037  0.230427  0.016815      4.000000
  0.000000  0.000000  0.033630      2.000000
  0.026607  0.015362  0.033630     12.000000
  0.053215  0.030724  0.033630     12.000000
  0.079822  0.046085  0.033630     12.000000
  0.106430  0.061447  0.033630     12.000000
  0.133037  0.076809  0.033630     12.000000
  0.159644  0.092171  0.033630     12.000000
  0.186252  0.107532  0.033630     12.000000
  0.026607  0.046085  0.033630     12.000000
  0.053215  0.061447  0.033630     24.000000
  0.079822  0.076809  0.033630     24.000000
  0.106430  0.092171  0.033630     24.000000
  0.133037  0.107532  0.033630     24.000000
  0.159644  0.122894  0.033630     24.000000
  0.186252  0.138256  0.033630     12.000000
  0.053215  0.092171  0.033630     12.000000
  0.079822  0.107532  0.033630     24.000000
  0.106430  0.122894  0.033630     24.000000
  0.133037  0.138256  0.033630     24.000000
  0.159644  0.153618  0.033630     24.000000
  0.079822  0.138256  0.033630     12.000000
  0.106430  0.153618  0.033630     24.000000
  0.133037  0.168980  0.033630     24.000000
  0.159644  0.184341  0.033630     12.000000
  0.106430  0.184341  0.033630     12.000000
  0.133037  0.199703  0.033630     24.000000
  0.133037  0.230427  0.033630      4.000000
  0.000000  0.000000  0.050444      2.000000
  0.026607  0.015362  0.050444     12.000000
  0.053215  0.030724  0.050444     12.000000
  0.079822  0.046085  0.050444     12.000000
  0.106430  0.061447  0.050444     12.000000
  0.133037  0.076809  0.050444     12.000000
  0.159644  0.092171  0.050444     12.000000
  0.186252  0.107532  0.050444     12.000000
  0.026607  0.046085  0.050444     12.000000
  0.053215  0.061447  0.050444     24.000000
  0.079822  0.076809  0.050444     24.000000
  0.106430  0.092171  0.050444     24.000000
  0.133037  0.107532  0.050444     24.000000
  0.159644  0.122894  0.050444     24.000000
  0.186252  0.138256  0.050444     12.000000
  0.053215  0.092171  0.050444     12.000000
  0.079822  0.107532  0.050444     24.000000
  0.106430  0.122894  0.050444     24.000000
  0.133037  0.138256  0.050444     24.000000
  0.159644  0.153618  0.050444     24.000000
  0.079822  0.138256  0.050444     12.000000
  0.106430  0.153618  0.050444     24.000000
  0.133037  0.168980  0.050444     24.000000
  0.159644  0.184341  0.050444     12.000000
  0.106430  0.184341  0.050444     12.000000
  0.133037  0.199703  0.050444     24.000000
  0.133037  0.230427  0.050444      4.000000
  0.000000  0.000000  0.067259      2.000000
  0.026607  0.015362  0.067259     12.000000
  0.053215  0.030724  0.067259     12.000000
  0.079822  0.046085  0.067259     12.000000
  0.106430  0.061447  0.067259     12.000000
  0.133037  0.076809  0.067259     12.000000
  0.159644  0.092171  0.067259     12.000000
  0.186252  0.107532  0.067259     12.000000
  0.026607  0.046085  0.067259     12.000000
  0.053215  0.061447  0.067259     24.000000
  0.079822  0.076809  0.067259     24.000000
  0.106430  0.092171  0.067259     24.000000
  0.133037  0.107532  0.067259     24.000000
  0.159644  0.122894  0.067259     24.000000
  0.186252  0.138256  0.067259     12.000000
  0.053215  0.092171  0.067259     12.000000
  0.079822  0.107532  0.067259     24.000000
  0.106430  0.122894  0.067259     24.000000
  0.133037  0.138256  0.067259     24.000000
  0.159644  0.153618  0.067259     24.000000
  0.079822  0.138256  0.067259     12.000000
  0.106430  0.153618  0.067259     24.000000
  0.133037  0.168980  0.067259     24.000000
  0.159644  0.184341  0.067259     12.000000
  0.106430  0.184341  0.067259     12.000000
  0.133037  0.199703  0.067259     24.000000
  0.133037  0.230427  0.067259      4.000000
  0.000000  0.000000  0.084074      2.000000
  0.026607  0.015362  0.084074     12.000000
  0.053215  0.030724  0.084074     12.000000
  0.079822  0.046085  0.084074     12.000000
  0.106430  0.061447  0.084074     12.000000
  0.133037  0.076809  0.084074     12.000000
  0.159644  0.092171  0.084074     12.000000
  0.186252  0.107532  0.084074     12.000000
  0.026607  0.046085  0.084074     12.000000
  0.053215  0.061447  0.084074     24.000000
  0.079822  0.076809  0.084074     24.000000
  0.106430  0.092171  0.084074     24.000000
  0.133037  0.107532  0.084074     24.000000
  0.159644  0.122894  0.084074     24.000000
  0.186252  0.138256  0.084074     12.000000
  0.053215  0.092171  0.084074     12.000000
  0.079822  0.107532  0.084074     24.000000
  0.106430  0.122894  0.084074     24.000000
  0.133037  0.138256  0.084074     24.000000
  0.159644  0.153618  0.084074     24.000000
  0.079822  0.138256  0.084074     12.000000
  0.106430  0.153618  0.084074     24.000000
  0.133037  0.168980  0.084074     24.000000
  0.159644  0.184341  0.084074     12.000000
  0.106430  0.184341  0.084074     12.000000
  0.133037  0.199703  0.084074     24.000000
  0.133037  0.230427  0.084074      4.000000
  0.000000  0.000000  0.100889      2.000000
  0.026607  0.015362  0.100889     12.000000
  0.053215  0.030724  0.100889     12.000000
  0.079822  0.046085  0.100889     12.000000
  0.106430  0.061447  0.100889     12.000000
  0.133037  0.076809  0.100889     12.000000
  0.159644  0.092171  0.100889     12.000000
  0.186252  0.107532  0.100889     12.000000
  0.026607  0.046085  0.100889     12.000000
  0.053215  0.061447  0.100889     24.000000
  0.079822  0.076809  0.100889     24.000000
  0.106430  0.092171  0.100889     24.000000
  0.133037  0.107532  0.100889     24.000000
  0.159644  0.122894  0.100889     24.000000
  0.186252  0.138256  0.100889     12.000000
  0.053215  0.092171  0.100889     12.000000
  0.079822  0.107532  0.100889     24.000000
  0.106430  0.122894  0.100889     24.000000
  0.133037  0.138256  0.100889     24.000000
  0.159644  0.153618  0.100889     24.000000
  0.079822  0.138256  0.100889     12.000000
  0.106430  0.153618  0.100889     24.000000
  0.133037  0.168980  0.100889     24.000000
  0.159644  0.184341  0.100889     12.000000
  0.106430  0.184341  0.100889     12.000000
  0.133037  0.199703  0.100889     24.000000
  0.133037  0.230427  0.100889      4.000000
  0.000000  0.000000  0.117704      2.000000
  0.026607  0.015362  0.117704     12.000000
  0.053215  0.030724  0.117704     12.000000
  0.079822  0.046085  0.117704     12.000000
  0.106430  0.061447  0.117704     12.000000
  0.133037  0.076809  0.117704     12.000000
  0.159644  0.092171  0.117704     12.000000
  0.186252  0.107532  0.117704     12.000000
  0.026607  0.046085  0.117704     12.000000
  0.053215  0.061447  0.117704     24.000000
  0.079822  0.076809  0.117704     24.000000
  0.106430  0.092171  0.117704     24.000000
  0.133037  0.107532  0.117704     24.000000
  0.159644  0.122894  0.117704     24.000000
  0.186252  0.138256  0.117704     12.000000
  0.053215  0.092171  0.117704     12.000000
  0.079822  0.107532  0.117704     24.000000
  0.106430  0.122894  0.117704     24.000000
  0.133037  0.138256  0.117704     24.000000
  0.159644  0.153618  0.117704     24.000000
  0.079822  0.138256  0.117704     12.000000
  0.106430  0.153618  0.117704     24.000000
  0.133037  0.168980  0.117704     24.000000
  0.159644  0.184341  0.117704     12.000000
  0.106430  0.184341  0.117704     12.000000
  0.133037  0.199703  0.117704     24.000000
  0.133037  0.230427  0.117704      4.000000
 


--------------------------------------------------------------------------------------------------------




 Dimension of arrays:
   k-points           NKPTS =    216   k-points in BZ     NKDIM =    216   number of bands    NBANDS=     14
   number of dos      NEDOS =   3000   number of ions     NIONS =      2
   non local maximal  LDIM  =      6   non local SUM 2l+1 LMDIM =     18
   total plane-waves  NPLWV =   2880
   max r-space proj   IRMAX =   1397   max aug-charges    IRDMAX=   5468
   dimension x,y,z NGX =    12 NGY =   12 NGZ =   20
   dimension x,y,z NGXF=    24 NGYF=   24 NGZF=   40
   support grid    NGXF=    24 NGYF=   24 NGZF=   40
   ions per type =               2
 NGX,Y,Z   is equivalent  to a cutoff of   7.96,  7.96,  8.39 a.u.
 NGXF,Y,Z  is equivalent  to a cutoff of  15.92, 15.92, 16.77 a.u.


 I would recommend the setting:
   dimension x,y,z NGX =    12 NGY =   12 NGZ =   19
 SYSTEM =  Cu-lattice                              
 POSCAR =  Co                                      

 Startparameter for this run:
   NWRITE =      2    write-flag & timer
   PREC   = normal    normal or accurate (medium, high low for compatibility)
   ISTART =      0    job   : 0-new  1-cont  2-samecut
   ICHARG =      2    charge: 1-file 2-atom 10-const
   ISPIN  =      2    spin polarized calculation?
   LNONCOLLINEAR =      F non collinear calculations
   LSORBIT =      F    spin-orbit coupling
   INIWAV =      1    electr: 0-lowe 1-rand  2-diag
   LASPH  =      F    aspherical Exc in radial PAW
   METAGGA=      F    non-selfconsistent MetaGGA calc.

 Electronic Relaxation 1
   ENCUT  =  400.0 eV  29.40 Ry    5.42 a.u.   4.09  4.09  6.47*2*pi/ulx,y,z
   ENINI  =  400.0     initial cutoff
   ENAUG  =  477.8 eV  augmentation charge cutoff
   NELM   =    100;   NELMIN=  2; NELMDL= -5     # of ELM steps 
   EDIFF  = 0.1E-05   stopping-criterion for ELM
   LREAL  =      T    real-space projection
   NLSPLINE    = F    spline interpolate recip. space projectors
   LCOMPAT=      F    compatible to vasp.4.4
   GGA_COMPAT  = T    GGA compatible to vasp.4.4-vasp.4.6
   LMAXPAW     = -100 max onsite density
   LMAXMIX     =    2 max onsite mixed and CHGCAR
   VOSKOWN=      0    Vosko Wilk Nusair interpolation
   ROPT   =   -0.00050
 Ionic relaxation
   EDIFFG = 0.2E-02   stopping-criterion for IOM
   NSW    =   1111    number of steps for IOM
   NBLOCK =      1;   KBLOCK =   1111    inner block; outer block 
   IBRION =      1    ionic relax: 0-MD 1-quasi-New 2-CG
   NFREE  =      0    steps in history (QN), initial steepest desc. (CG)
   ISIF   =      3    stress and relaxation
   IWAVPR =     11    prediction:  0-non 1-charg 2-wave 3-comb
   ISYM   =      2    0-nonsym 1-usesym 2-fastsym
   LCORR  =      T    Harris-Foulkes like correction to forces

   POTIM  = 0.1000    time-step for ionic-motion
   TEIN   =    0.0    initial temperature
   TEBEG  =    0.0;   TEEND  =   0.0 temperature during run
   SMASS  =  -3.00    Nose mass-parameter (am)
   estimated Nose-frequenzy (Omega)   =  0.10E-29 period in steps =****** mass=  -0.143E-27a.u.
   SCALEE = 1.0000    scale energy and forces
   NPACO  =    256;   APACO  = 16.0  distance and # of slots for P.C.
   PSTRESS=    0.0 pullay stress

  Mass of Ions in am
   POMASS =  58.93
  Ionic Valenz
   ZVAL   =   9.00
  Atomic Wigner-Seitz radii
   RWIGS  =  -1.00
  virtual crystal weights 
   VCA    =   1.00
   NELECT =      18.0000    total number of electrons
   NUPDOWN=      -1.0000    fix difference up-down

 DOS related values:
   EMIN   =  10.00;   EMAX   =-10.00  energy-range for DOS
   EFERMI =   0.00
   ISMEAR =     1;   SIGMA  =   0.10  broadening in eV -4-tet -1-fermi 0-gaus

 Electronic relaxation 2 (details)
   IALGO  =     68    algorithm
   LDIAG  =      T    sub-space diagonalisation (order eigenvalues)
   LSUBROT=      F    optimize rotation matrix (better conditioning)
   TURBO    =      0    0=normal 1=particle mesh
   IRESTART =      0    0=no restart 2=restart with 2 vectors
   NREBOOT  =      0    no. of reboots
   NMIN     =      0    reboot dimension
   EREF     =   0.00    reference energy to select bands
   IMIX   =      4    mixing-type and parameters
     AMIX     =   0.40;   BMIX     =  1.00
     AMIX_MAG =   1.60;   BMIX_MAG =  1.00
     AMIN     =   0.10
     WC   =   100.;   INIMIX=   1;  MIXPRE=   1;  MAXMIX= -45

 Intra band minimization:
   WEIMIN = 0.0010     energy-eigenvalue tresh-hold
   EBREAK =  0.18E-07  absolut break condition
   DEPER  =   0.30     relativ break condition  

   TIME   =   0.40     timestep for ELM

  volume/ion in A,a.u.               =      10.78        72.73
  Fermi-wavevector in a.u.,A,eV,Ry     =   1.541625  2.913248 32.335694  2.376606
  Thomas-Fermi vector in A             =   2.647544
 
 Write flags
   LWAVE  =      T    write WAVECAR
   LCHARG =      T    write CHGCAR
   LVTOT  =      F    write LOCPOT, total local potential
   LVHAR  =      F    write LOCPOT, Hartree potential only
   LELF   =      F    write electronic localiz. function (ELF)
   LORBIT =     11    0 simple, 1 ext, 2 COOP (PROOUT)


 Dipole corrections
   LMONO  =      F    monopole corrections only (constant potential shift)
   LDIPOL =      F    correct potential (dipole corrections)
   IDIPOL =      0    1-x, 2-y, 3-z, 4-all directions 
   EPSILON=  1.0000000 bulk dielectric constant

 Exchange correlation treatment:
   GGA     =    PE    GGA type
   LEXCH   =     8    internal setting for exchange type
   VOSKOWN=      0    Vosko Wilk Nusair interpolation
   LHFCALC =     F    Hartree Fock is set to
   LHFONE  =     F    Hartree Fock one center treatment
   AEXX    =    0.0000 exact exchange contribution

 Linear response parameters
   LEPSILON=     F    determine dielectric tensor
   LRPA    =     F    only Hartree local field effects (RPA)
   LNABLA  =     F    use nabla operator in PAW spheres
   LVEL    =     F    velocity operator in full k-point grid
   LINTERFAST=   F  fast interpolation
   KINTER  =     0    interpolate to denser k-point grid
   CSHIFT  =0.1000    complex shift for real part using Kramers Kronig
   OMEGAMAX=  -1.0    maximum frequency
   DEG_THRESHOLD= 0.2000000E-02 threshold for treating states as degnerate
   RTIME   =    0.100 relaxation time in fs

 Orbital magnetization related:
   ORBITALMAG=     F  switch on orbital magnetization
   LCHIMAG   =     F  perturbation theory with respect to B field
   DQ        =  0.001000  dq finite difference perturbation B field



--------------------------------------------------------------------------------------------------------


 quasi-Newton-method for relaxation of ions
 charge density and potential will be updated during run
 spin polarized calculation
 RMM-DIIS sequential band-by-band and
  variant of blocked Davidson during initial phase
 perform sub-space diagonalisation
    before iterative eigenvector-optimisation
 modified Broyden-mixing scheme, WC =      100.0
 initial mixing is a Kerker type mixing with AMIX =  0.4000 and BMIX =      1.0000
 Hartree-type preconditioning will be used
 using additional bands            5
 real space projection scheme for non local part
 use partial core corrections
 calculate Harris-corrections to forces 
   (improved forces if not selfconsistent)
 use gradient corrections 
 use of overlap-Matrix (Vanderbilt PP)
 Methfessel and Paxton  Order N= 1 SIGMA  =   0.10


--------------------------------------------------------------------------------------------------------


  energy-cutoff  :      400.00
  volume of cell :       21.56
      direct lattice vectors                 reciprocal lattice vectors
     2.505570888  0.000000000  0.000000000     0.399110640  0.230426635  0.000000000
    -1.252785444  2.169888040  0.000000000     0.000000000  0.460853270  0.000000000
     0.000000000  0.000000000  3.964761496     0.000000000  0.000000000  0.252221981

  length of vectors
     2.505570888  2.505570889  3.964761496     0.460853270  0.460853270  0.252221981


 
 k-points in units of 2pi/SCALE and weight: K-points                                
   0.00000000  0.00000000  0.00000000       0.000
   0.02660738  0.01536178  0.00000000       0.002
   0.05321475  0.03072355  0.00000000       0.002
   0.07982213  0.04608533  0.00000000       0.002
   0.10642950  0.06144710  0.00000000       0.002
   0.13303688  0.07680888  0.00000000       0.002
   0.15964426  0.09217065  0.00000000       0.002
   0.18625163  0.10753243  0.00000000       0.002
   0.02660738  0.04608533  0.00000000       0.002
   0.05321475  0.06144710  0.00000000       0.004
   0.07982213  0.07680888  0.00000000       0.004
   0.10642950  0.09217065  0.00000000       0.004
   0.13303688  0.10753243  0.00000000       0.004
   0.15964426  0.12289421  0.00000000       0.004
   0.18625163  0.13825598  0.00000000       0.002
   0.05321475  0.09217065  0.00000000       0.002
   0.07982213  0.10753243  0.00000000       0.004
   0.10642950  0.12289421  0.00000000       0.004
   0.13303688  0.13825598  0.00000000       0.004
   0.15964426  0.15361776  0.00000000       0.004
   0.07982213  0.13825598  0.00000000       0.002
   0.10642950  0.15361776  0.00000000       0.004
   0.13303688  0.16897953  0.00000000       0.004
   0.15964426  0.18434131  0.00000000       0.002
   0.10642950  0.18434131  0.00000000       0.002
   0.13303688  0.19970308  0.00000000       0.004
   0.13303688  0.23042664  0.00000000       0.001
   0.00000000  0.00000000  0.01681480       0.001
   0.02660738  0.01536178  0.01681480       0.004
   0.05321475  0.03072355  0.01681480       0.004
   0.07982213  0.04608533  0.01681480       0.004
   0.10642950  0.06144710  0.01681480       0.004
   0.13303688  0.07680888  0.01681480       0.004
   0.15964426  0.09217065  0.01681480       0.004
   0.18625163  0.10753243  0.01681480       0.004
   0.02660738  0.04608533  0.01681480       0.004
   0.05321475  0.06144710  0.01681480       0.007
   0.07982213  0.07680888  0.01681480       0.007
   0.10642950  0.09217065  0.01681480       0.007
   0.13303688  0.10753243  0.01681480       0.007
   0.15964426  0.12289421  0.01681480       0.007
   0.18625163  0.13825598  0.01681480       0.004
   0.05321475  0.09217065  0.01681480       0.004
   0.07982213  0.10753243  0.01681480       0.007
   0.10642950  0.12289421  0.01681480       0.007
   0.13303688  0.13825598  0.01681480       0.007
   0.15964426  0.15361776  0.01681480       0.007
   0.07982213  0.13825598  0.01681480       0.004
   0.10642950  0.15361776  0.01681480       0.007
   0.13303688  0.16897953  0.01681480       0.007
   0.15964426  0.18434131  0.01681480       0.004
   0.10642950  0.18434131  0.01681480       0.004
   0.13303688  0.19970308  0.01681480       0.007
   0.13303688  0.23042664  0.01681480       0.001
   0.00000000  0.00000000  0.03362960       0.001
   0.02660738  0.01536178  0.03362960       0.004
   0.05321475  0.03072355  0.03362960       0.004
   0.07982213  0.04608533  0.03362960       0.004
   0.10642950  0.06144710  0.03362960       0.004
   0.13303688  0.07680888  0.03362960       0.004
   0.15964426  0.09217065  0.03362960       0.004
   0.18625163  0.10753243  0.03362960       0.004
   0.02660738  0.04608533  0.03362960       0.004
   0.05321475  0.06144710  0.03362960       0.007
   0.07982213  0.07680888  0.03362960       0.007
   0.10642950  0.09217065  0.03362960       0.007
   0.13303688  0.10753243  0.03362960       0.007
   0.15964426  0.12289421  0.03362960       0.007
   0.18625163  0.13825598  0.03362960       0.004
   0.05321475  0.09217065  0.03362960       0.004
   0.07982213  0.10753243  0.03362960       0.007
   0.10642950  0.12289421  0.03362960       0.007
   0.13303688  0.13825598  0.03362960       0.007
   0.15964426  0.15361776  0.03362960       0.007
   0.07982213  0.13825598  0.03362960       0.004
   0.10642950  0.15361776  0.03362960       0.007
   0.13303688  0.16897953  0.03362960       0.007
   0.15964426  0.18434131  0.03362960       0.004
   0.10642950  0.18434131  0.03362960       0.004
   0.13303688  0.19970308  0.03362960       0.007
   0.13303688  0.23042664  0.03362960       0.001
   0.00000000  0.00000000  0.05044440       0.001
   0.02660738  0.01536178  0.05044440       0.004
   0.05321475  0.03072355  0.05044440       0.004
   0.07982213  0.04608533  0.05044440       0.004
   0.10642950  0.06144710  0.05044440       0.004
   0.13303688  0.07680888  0.05044440       0.004
   0.15964426  0.09217065  0.05044440       0.004
   0.18625163  0.10753243  0.05044440       0.004
   0.02660738  0.04608533  0.05044440       0.004
   0.05321475  0.06144710  0.05044440       0.007
   0.07982213  0.07680888  0.05044440       0.007
   0.10642950  0.09217065  0.05044440       0.007
   0.13303688  0.10753243  0.05044440       0.007
   0.15964426  0.12289421  0.05044440       0.007
   0.18625163  0.13825598  0.05044440       0.004
   0.05321475  0.09217065  0.05044440       0.004
   0.07982213  0.10753243  0.05044440       0.007
   0.10642950  0.12289421  0.05044440       0.007
   0.13303688  0.13825598  0.05044440       0.007
   0.15964426  0.15361776  0.05044440       0.007
   0.07982213  0.13825598  0.05044440       0.004
   0.10642950  0.15361776  0.05044440       0.007
   0.13303688  0.16897953  0.05044440       0.007
   0.15964426  0.18434131  0.05044440       0.004
   0.10642950  0.18434131  0.05044440       0.004
   0.13303688  0.19970308  0.05044440       0.007
   0.13303688  0.23042664  0.05044440       0.001
   0.00000000  0.00000000  0.06725920       0.001
   0.02660738  0.01536178  0.06725920       0.004
   0.05321475  0.03072355  0.06725920       0.004
   0.07982213  0.04608533  0.06725920       0.004
   0.10642950  0.06144710  0.06725920       0.004
   0.13303688  0.07680888  0.06725920       0.004
   0.15964426  0.09217065  0.06725920       0.004
   0.18625163  0.10753243  0.06725920       0.004
   0.02660738  0.04608533  0.06725920       0.004
   0.05321475  0.06144710  0.06725920       0.007
   0.07982213  0.07680888  0.06725920       0.007
   0.10642950  0.09217065  0.06725920       0.007
   0.13303688  0.10753243  0.06725920       0.007
   0.15964426  0.12289421  0.06725920       0.007
   0.18625163  0.13825598  0.06725920       0.004
   0.05321475  0.09217065  0.06725920       0.004
   0.07982213  0.10753243  0.06725920       0.007
   0.10642950  0.12289421  0.06725920       0.007
   0.13303688  0.13825598  0.06725920       0.007
   0.15964426  0.15361776  0.06725920       0.007
   0.07982213  0.13825598  0.06725920       0.004
   0.10642950  0.15361776  0.06725920       0.007
   0.13303688  0.16897953  0.06725920       0.007
   0.15964426  0.18434131  0.06725920       0.004
   0.10642950  0.18434131  0.06725920       0.004
   0.13303688  0.19970308  0.06725920       0.007
   0.13303688  0.23042664  0.06725920       0.001
   0.00000000  0.00000000  0.08407399       0.001
   0.02660738  0.01536178  0.08407399       0.004
   0.05321475  0.03072355  0.08407399       0.004
   0.07982213  0.04608533  0.08407399       0.004
   0.10642950  0.06144710  0.08407399       0.004
   0.13303688  0.07680888  0.08407399       0.004
   0.15964426  0.09217065  0.08407399       0.004
   0.18625163  0.10753243  0.08407399       0.004
   0.02660738  0.04608533  0.08407399       0.004
   0.05321475  0.06144710  0.08407399       0.007
   0.07982213  0.07680888  0.08407399       0.007
   0.10642950  0.09217065  0.08407399       0.007
   0.13303688  0.10753243  0.08407399       0.007
   0.15964426  0.12289421  0.08407399       0.007
   0.18625163  0.13825598  0.08407399       0.004
   0.05321475  0.09217065  0.08407399       0.004
   0.07982213  0.10753243  0.08407399       0.007
   0.10642950  0.12289421  0.08407399       0.007
   0.13303688  0.13825598  0.08407399       0.007
   0.15964426  0.15361776  0.08407399       0.007
   0.07982213  0.13825598  0.08407399       0.004
   0.10642950  0.15361776  0.08407399       0.007
   0.13303688  0.16897953  0.08407399       0.007
   0.15964426  0.18434131  0.08407399       0.004
   0.10642950  0.18434131  0.08407399       0.004
   0.13303688  0.19970308  0.08407399       0.007
   0.13303688  0.23042664  0.08407399       0.001
   0.00000000  0.00000000  0.10088879       0.001
   0.02660738  0.01536178  0.10088879       0.004
   0.05321475  0.03072355  0.10088879       0.004
   0.07982213  0.04608533  0.10088879       0.004
   0.10642950  0.06144710  0.10088879       0.004
   0.13303688  0.07680888  0.10088879       0.004
   0.15964426  0.09217065  0.10088879       0.004
   0.18625163  0.10753243  0.10088879       0.004
   0.02660738  0.04608533  0.10088879       0.004
   0.05321475  0.06144710  0.10088879       0.007
   0.07982213  0.07680888  0.10088879       0.007
   0.10642950  0.09217065  0.10088879       0.007
   0.13303688  0.10753243  0.10088879       0.007
   0.15964426  0.12289421  0.10088879       0.007
   0.18625163  0.13825598  0.10088879       0.004
   0.05321475  0.09217065  0.10088879       0.004
   0.07982213  0.10753243  0.10088879       0.007
   0.10642950  0.12289421  0.10088879       0.007
   0.13303688  0.13825598  0.10088879       0.007
   0.15964426  0.15361776  0.10088879       0.007
   0.07982213  0.13825598  0.10088879       0.004
   0.10642950  0.15361776  0.10088879       0.007
   0.13303688  0.16897953  0.10088879       0.007
   0.15964426  0.18434131  0.10088879       0.004
   0.10642950  0.18434131  0.10088879       0.004
   0.13303688  0.19970308  0.10088879       0.007
   0.13303688  0.23042664  0.10088879       0.001
   0.00000000  0.00000000  0.11770359       0.001
   0.02660738  0.01536178  0.11770359       0.004
   0.05321475  0.03072355  0.11770359       0.004
   0.07982213  0.04608533  0.11770359       0.004
   0.10642950  0.06144710  0.11770359       0.004
   0.13303688  0.07680888  0.11770359       0.004
   0.15964426  0.09217065  0.11770359       0.004
   0.18625163  0.10753243  0.11770359       0.004
   0.02660738  0.04608533  0.11770359       0.004
   0.05321475  0.06144710  0.11770359       0.007
   0.07982213  0.07680888  0.11770359       0.007
   0.10642950  0.09217065  0.11770359       0.007
   0.13303688  0.10753243  0.11770359       0.007
   0.15964426  0.12289421  0.11770359       0.007
   0.18625163  0.13825598  0.11770359       0.004
   0.05321475  0.09217065  0.11770359       0.004
   0.07982213  0.10753243  0.11770359       0.007
   0.10642950  0.12289421  0.11770359       0.007
   0.13303688  0.13825598  0.11770359       0.007
   0.15964426  0.15361776  0.11770359       0.007
   0.07982213  0.13825598  0.11770359       0.004
   0.10642950  0.15361776  0.11770359       0.007
   0.13303688  0.16897953  0.11770359       0.007
   0.15964426  0.18434131  0.11770359       0.004
   0.10642950  0.18434131  0.11770359       0.004
   0.13303688  0.19970308  0.11770359       0.007
   0.13303688  0.23042664  0.11770359       0.001
 
 k-points in reciprocal lattice and weights: K-points                                
   0.00000000  0.00000000  0.00000000       0.000
   0.06666667  0.00000000  0.00000000       0.002
   0.13333333  0.00000000  0.00000000       0.002
   0.20000000 -0.00000000  0.00000000       0.002
   0.26666667 -0.00000000  0.00000000       0.002
   0.33333333  0.00000000  0.00000000       0.002
   0.40000000 -0.00000000  0.00000000       0.002
   0.46666667  0.00000000  0.00000000       0.002
   0.06666667  0.06666667  0.00000000       0.002
   0.13333333  0.06666667  0.00000000       0.004
   0.20000000  0.06666667  0.00000000       0.004
   0.26666667  0.06666667  0.00000000       0.004
   0.33333333  0.06666667  0.00000000       0.004
   0.40000000  0.06666667  0.00000000       0.004
   0.46666667  0.06666667  0.00000000       0.002
   0.13333333  0.13333333  0.00000000       0.002
   0.20000000  0.13333333  0.00000000       0.004
   0.26666667  0.13333333  0.00000000       0.004
   0.33333333  0.13333333  0.00000000       0.004
   0.40000000  0.13333333  0.00000000       0.004
   0.20000000  0.20000000  0.00000000       0.002
   0.26666667  0.20000000  0.00000000       0.004
   0.33333333  0.20000000  0.00000000       0.004
   0.40000000  0.20000000  0.00000000       0.002
   0.26666667  0.26666667  0.00000000       0.002
   0.33333333  0.26666667  0.00000000       0.004
   0.33333333  0.33333333  0.00000000       0.001
   0.00000000  0.00000000  0.06666667       0.001
   0.06666667  0.00000000  0.06666667       0.004
   0.13333333  0.00000000  0.06666667       0.004
   0.20000000 -0.00000000  0.06666667       0.004
   0.26666667 -0.00000000  0.06666667       0.004
   0.33333333  0.00000000  0.06666667       0.004
   0.40000000 -0.00000000  0.06666667       0.004
   0.46666667  0.00000000  0.06666667       0.004
   0.06666667  0.06666667  0.06666667       0.004
   0.13333333  0.06666667  0.06666667       0.007
   0.20000000  0.06666667  0.06666667       0.007
   0.26666667  0.06666667  0.06666667       0.007
   0.33333333  0.06666667  0.06666667       0.007
   0.40000000  0.06666667  0.06666667       0.007
   0.46666667  0.06666667  0.06666667       0.004
   0.13333333  0.13333333  0.06666667       0.004
   0.20000000  0.13333333  0.06666667       0.007
   0.26666667  0.13333333  0.06666667       0.007
   0.33333333  0.13333333  0.06666667       0.007
   0.40000000  0.13333333  0.06666667       0.007
   0.20000000  0.20000000  0.06666667       0.004
   0.26666667  0.20000000  0.06666667       0.007
   0.33333333  0.20000000  0.06666667       0.007
   0.40000000  0.20000000  0.06666667       0.004
   0.26666667  0.26666667  0.06666667       0.004
   0.33333333  0.26666667  0.06666667       0.007
   0.33333333  0.33333333  0.06666667       0.001
   0.00000000  0.00000000  0.13333333       0.001
   0.06666667  0.00000000  0.13333333       0.004
   0.13333333  0.00000000  0.13333333       0.004
   0.20000000 -0.00000000  0.13333333       0.004
   0.26666667 -0.00000000  0.13333333       0.004
   0.33333333  0.00000000  0.13333333       0.004
   0.40000000 -0.00000000  0.13333333       0.004
   0.46666667  0.00000000  0.13333333       0.004
   0.06666667  0.06666667  0.13333333       0.004
   0.13333333  0.06666667  0.13333333       0.007
   0.20000000  0.06666667  0.13333333       0.007
   0.26666667  0.06666667  0.13333333       0.007
   0.33333333  0.06666667  0.13333333       0.007
   0.40000000  0.06666667  0.13333333       0.007
   0.46666667  0.06666667  0.13333333       0.004
   0.13333333  0.13333333  0.13333333       0.004
   0.20000000  0.13333333  0.13333333       0.007
   0.26666667  0.13333333  0.13333333       0.007
   0.33333333  0.13333333  0.13333333       0.007
   0.40000000  0.13333333  0.13333333       0.007
   0.20000000  0.20000000  0.13333333       0.004
   0.26666667  0.20000000  0.13333333       0.007
   0.33333333  0.20000000  0.13333333       0.007
   0.40000000  0.20000000  0.13333333       0.004
   0.26666667  0.26666667  0.13333333       0.004
   0.33333333  0.26666667  0.13333333       0.007
   0.33333333  0.33333333  0.13333333       0.001
   0.00000000  0.00000000  0.20000000       0.001
   0.06666667  0.00000000  0.20000000       0.004
   0.13333333  0.00000000  0.20000000       0.004
   0.20000000 -0.00000000  0.20000000       0.004
   0.26666667 -0.00000000  0.20000000       0.004
   0.33333333  0.00000000  0.20000000       0.004
   0.40000000 -0.00000000  0.20000000       0.004
   0.46666667  0.00000000  0.20000000       0.004
   0.06666667  0.06666667  0.20000000       0.004
   0.13333333  0.06666667  0.20000000       0.007
   0.20000000  0.06666667  0.20000000       0.007
   0.26666667  0.06666667  0.20000000       0.007
   0.33333333  0.06666667  0.20000000       0.007
   0.40000000  0.06666667  0.20000000       0.007
   0.46666667  0.06666667  0.20000000       0.004
   0.13333333  0.13333333  0.20000000       0.004
   0.20000000  0.13333333  0.20000000       0.007
   0.26666667  0.13333333  0.20000000       0.007
   0.33333333  0.13333333  0.20000000       0.007
   0.40000000  0.13333333  0.20000000       0.007
   0.20000000  0.20000000  0.20000000       0.004
   0.26666667  0.20000000  0.20000000       0.007
   0.33333333  0.20000000  0.20000000       0.007
   0.40000000  0.20000000  0.20000000       0.004
   0.26666667  0.26666667  0.20000000       0.004
   0.33333333  0.26666667  0.20000000       0.007
   0.33333333  0.33333333  0.20000000       0.001
   0.00000000  0.00000000  0.26666667       0.001
   0.06666667  0.00000000  0.26666667       0.004
   0.13333333  0.00000000  0.26666667       0.004
   0.20000000 -0.00000000  0.26666667       0.004
   0.26666667 -0.00000000  0.26666667       0.004
   0.33333333  0.00000000  0.26666667       0.004
   0.40000000 -0.00000000  0.26666667       0.004
   0.46666667  0.00000000  0.26666667       0.004
   0.06666667  0.06666667  0.26666667       0.004
   0.13333333  0.06666667  0.26666667       0.007
   0.20000000  0.06666667  0.26666667       0.007
   0.26666667  0.06666667  0.26666667       0.007
   0.33333333  0.06666667  0.26666667       0.007
   0.40000000  0.06666667  0.26666667       0.007
   0.46666667  0.06666667  0.26666667       0.004
   0.13333333  0.13333333  0.26666667       0.004
   0.20000000  0.13333333  0.26666667       0.007
   0.26666667  0.13333333  0.26666667       0.007
   0.33333333  0.13333333  0.26666667       0.007
   0.40000000  0.13333333  0.26666667       0.007
   0.20000000  0.20000000  0.26666667       0.004
   0.26666667  0.20000000  0.26666667       0.007
   0.33333333  0.20000000  0.26666667       0.007
   0.40000000  0.20000000  0.26666667       0.004
   0.26666667  0.26666667  0.26666667       0.004
   0.33333333  0.26666667  0.26666667       0.007
   0.33333333  0.33333333  0.26666667       0.001
   0.00000000  0.00000000  0.33333333       0.001
   0.06666667  0.00000000  0.33333333       0.004
   0.13333333  0.00000000  0.33333333       0.004
   0.20000000 -0.00000000  0.33333333       0.004
   0.26666667 -0.00000000  0.33333333       0.004
   0.33333333  0.00000000  0.33333333       0.004
   0.40000000 -0.00000000  0.33333333       0.004
   0.46666667  0.00000000  0.33333333       0.004
   0.06666667  0.06666667  0.33333333       0.004
   0.13333333  0.06666667  0.33333333       0.007
   0.20000000  0.06666667  0.33333333       0.007
   0.26666667  0.06666667  0.33333333       0.007
   0.33333333  0.06666667  0.33333333       0.007
   0.40000000  0.06666667  0.33333333       0.007
   0.46666667  0.06666667  0.33333333       0.004
   0.13333333  0.13333333  0.33333333       0.004
   0.20000000  0.13333333  0.33333333       0.007
   0.26666667  0.13333333  0.33333333       0.007
   0.33333333  0.13333333  0.33333333       0.007
   0.40000000  0.13333333  0.33333333       0.007
   0.20000000  0.20000000  0.33333333       0.004
   0.26666667  0.20000000  0.33333333       0.007
   0.33333333  0.20000000  0.33333333       0.007
   0.40000000  0.20000000  0.33333333       0.004
   0.26666667  0.26666667  0.33333333       0.004
   0.33333333  0.26666667  0.33333333       0.007
   0.33333333  0.33333333  0.33333333       0.001
   0.00000000  0.00000000  0.40000000       0.001
   0.06666667  0.00000000  0.40000000       0.004
   0.13333333  0.00000000  0.40000000       0.004
   0.20000000 -0.00000000  0.40000000       0.004
   0.26666667 -0.00000000  0.40000000       0.004
   0.33333333  0.00000000  0.40000000       0.004
   0.40000000 -0.00000000  0.40000000       0.004
   0.46666667  0.00000000  0.40000000       0.004
   0.06666667  0.06666667  0.40000000       0.004
   0.13333333  0.06666667  0.40000000       0.007
   0.20000000  0.06666667  0.40000000       0.007
   0.26666667  0.06666667  0.40000000       0.007
   0.33333333  0.06666667  0.40000000       0.007
   0.40000000  0.06666667  0.40000000       0.007
   0.46666667  0.06666667  0.40000000       0.004
   0.13333333  0.13333333  0.40000000       0.004
   0.20000000  0.13333333  0.40000000       0.007
   0.26666667  0.13333333  0.40000000       0.007
   0.33333333  0.13333333  0.40000000       0.007
   0.40000000  0.13333333  0.40000000       0.007
   0.20000000  0.20000000  0.40000000       0.004
   0.26666667  0.20000000  0.40000000       0.007
   0.33333333  0.20000000  0.40000000       0.007
   0.40000000  0.20000000  0.40000000       0.004
   0.26666667  0.26666667  0.40000000       0.004
   0.33333333  0.26666667  0.40000000       0.007
   0.33333333  0.33333333  0.40000000       0.001
   0.00000000  0.00000000  0.46666667       0.001
   0.06666667  0.00000000  0.46666667       0.004
   0.13333333  0.00000000  0.46666667       0.004
   0.20000000 -0.00000000  0.46666667       0.004
   0.26666667 -0.00000000  0.46666667       0.004
   0.33333333  0.00000000  0.46666667       0.004
   0.40000000 -0.00000000  0.46666667       0.004
   0.46666667  0.00000000  0.46666667       0.004
   0.06666667  0.06666667  0.46666667       0.004
   0.13333333  0.06666667  0.46666667       0.007
   0.20000000  0.06666667  0.46666667       0.007
   0.26666667  0.06666667  0.46666667       0.007
   0.33333333  0.06666667  0.46666667       0.007
   0.40000000  0.06666667  0.46666667       0.007
   0.46666667  0.06666667  0.46666667       0.004
   0.13333333  0.13333333  0.46666667       0.004
   0.20000000  0.13333333  0.46666667       0.007
   0.26666667  0.13333333  0.46666667       0.007
   0.33333333  0.13333333  0.46666667       0.007
   0.40000000  0.13333333  0.46666667       0.007
   0.20000000  0.20000000  0.46666667       0.004
   0.26666667  0.20000000  0.46666667       0.007
   0.33333333  0.20000000  0.46666667       0.007
   0.40000000  0.20000000  0.46666667       0.004
   0.26666667  0.26666667  0.46666667       0.004
   0.33333333  0.26666667  0.46666667       0.007
   0.33333333  0.33333333  0.46666667       0.001
 
 position of ions in fractional coordinates (direct lattice) 
   0.33333335  0.66666670  0.25000000
   0.66666661  0.33333332  0.74999998
 
 position of ions in cartesian coordinates  (Angst):
   0.00000000  1.44659209  0.99119037
   1.25278532  0.72329599  2.97357106
 


--------------------------------------------------------------------------------------------------------


 k-point  1 :   0.0000 0.0000 0.0000  plane waves:     391
 k-point  2 :   0.0667 0.0000 0.0000  plane waves:     387
 k-point  3 :   0.1333 0.0000 0.0000  plane waves:     397
 k-point  4 :   0.2000-0.0000 0.0000  plane waves:     391
 k-point  5 :   0.2667-0.0000 0.0000  plane waves:     391
 k-point  6 :   0.3333 0.0000 0.0000  plane waves:     391
 k-point  7 :   0.4000-0.0000 0.0000  plane waves:     397
 k-point  8 :   0.4667 0.0000 0.0000  plane waves:     398
 k-point  9 :   0.0667 0.0667 0.0000  plane waves:     394
 k-point 10 :   0.1333 0.0667 0.0000  plane waves:     388
 k-point 11 :   0.2000 0.0667 0.0000  plane waves:     392
 k-point 12 :   0.2667 0.0667 0.0000  plane waves:     396
 k-point 13 :   0.3333 0.0667 0.0000  plane waves:     387
 k-point 14 :   0.4000 0.0667 0.0000  plane waves:     393
 k-point 15 :   0.4667 0.0667 0.0000  plane waves:     394
 k-point 16 :   0.1333 0.1333 0.0000  plane waves:     388
 k-point 17 :   0.2000 0.1333 0.0000  plane waves:     393
 k-point 18 :   0.2667 0.1333 0.0000  plane waves:     393
 k-point 19 :   0.3333 0.1333 0.0000  plane waves:     391
 k-point 20 :   0.4000 0.1333 0.0000  plane waves:     396
 k-point 21 :   0.2000 0.2000 0.0000  plane waves:     400
 k-point 22 :   0.2667 0.2000 0.0000  plane waves:     393
 k-point 23 :   0.3333 0.2000 0.0000  plane waves:     397
 k-point 24 :   0.4000 0.2000 0.0000  plane waves:     390
 k-point 25 :   0.2667 0.2667 0.0000  plane waves:     394
 k-point 26 :   0.3333 0.2667 0.0000  plane waves:     393
 k-point 27 :   0.3333 0.3333 0.0000  plane waves:     390
 k-point 28 :   0.0000 0.0000 0.0667  plane waves:     391
 k-point 29 :   0.0667 0.0000 0.0667  plane waves:     387
 k-point 30 :   0.1333 0.0000 0.0667  plane waves:     394
 k-point 31 :   0.2000-0.0000 0.0667  plane waves:     393
 k-point 32 :   0.2667-0.0000 0.0667  plane waves:     393
 k-point 33 :   0.3333 0.0000 0.0667  plane waves:     392
 k-point 34 :   0.4000-0.0000 0.0667  plane waves:     396
 k-point 35 :   0.4667 0.0000 0.0667  plane waves:     396
 k-point 36 :   0.0667 0.0667 0.0667  plane waves:     390
 k-point 37 :   0.1333 0.0667 0.0667  plane waves:     390
 k-point 38 :   0.2000 0.0667 0.0667  plane waves:     388
 k-point 39 :   0.2667 0.0667 0.0667  plane waves:     392
 k-point 40 :   0.3333 0.0667 0.0667  plane waves:     393
 k-point 41 :   0.4000 0.0667 0.0667  plane waves:     390
 k-point 42 :   0.4667 0.0667 0.0667  plane waves:     398
 k-point 43 :   0.1333 0.1333 0.0667  plane waves:     388
 k-point 44 :   0.2000 0.1333 0.0667  plane waves:     390
 k-point 45 :   0.2667 0.1333 0.0667  plane waves:     395
 k-point 46 :   0.3333 0.1333 0.0667  plane waves:     394
 k-point 47 :   0.4000 0.1333 0.0667  plane waves:     394
 k-point 48 :   0.2000 0.2000 0.0667  plane waves:     392
 k-point 49 :   0.2667 0.2000 0.0667  plane waves:     397
 k-point 50 :   0.3333 0.2000 0.0667  plane waves:     396
 k-point 51 :   0.4000 0.2000 0.0667  plane waves:     395
 k-point 52 :   0.2667 0.2667 0.0667  plane waves:     393
 k-point 53 :   0.3333 0.2667 0.0667  plane waves:     394
 k-point 54 :   0.3333 0.3333 0.0667  plane waves:     390
 k-point 55 :   0.0000 0.0000 0.1333  plane waves:     391
 k-point 56 :   0.0667 0.0000 0.1333  plane waves:     387
 k-point 57 :   0.1333 0.0000 0.1333  plane waves:     389
 k-point 58 :   0.2000-0.0000 0.1333  plane waves:     392
 k-point 59 :   0.2667-0.0000 0.1333  plane waves:     388
 k-point 60 :   0.3333 0.0000 0.1333  plane waves:     390
 k-point 61 :   0.4000-0.0000 0.1333  plane waves:     392
 k-point 62 :   0.4667 0.0000 0.1333  plane waves:     403
 k-point 63 :   0.0667 0.0667 0.1333  plane waves:     385
 k-point 64 :   0.1333 0.0667 0.1333  plane waves:     388
 k-point 65 :   0.2000 0.0667 0.1333  plane waves:     387
 k-point 66 :   0.2667 0.0667 0.1333  plane waves:     392
 k-point 67 :   0.3333 0.0667 0.1333  plane waves:     393
 k-point 68 :   0.4000 0.0667 0.1333  plane waves:     396
 k-point 69 :   0.4667 0.0667 0.1333  plane waves:     392
 k-point 70 :   0.1333 0.1333 0.1333  plane waves:     386
 k-point 71 :   0.2000 0.1333 0.1333  plane waves:     391
 k-point 72 :   0.2667 0.1333 0.1333  plane waves:     395
 k-point 73 :   0.3333 0.1333 0.1333  plane waves:     396
 k-point 74 :   0.4000 0.1333 0.1333  plane waves:     394
 k-point 75 :   0.2000 0.2000 0.1333  plane waves:     396
 k-point 76 :   0.2667 0.2000 0.1333  plane waves:     396
 k-point 77 :   0.3333 0.2000 0.1333  plane waves:     394
 k-point 78 :   0.4000 0.2000 0.1333  plane waves:     395
 k-point 79 :   0.2667 0.2667 0.1333  plane waves:     394
 k-point 80 :   0.3333 0.2667 0.1333  plane waves:     395
 k-point 81 :   0.3333 0.3333 0.1333  plane waves:     390
 k-point 82 :   0.0000 0.0000 0.2000  plane waves:     391
 k-point 83 :   0.0667 0.0000 0.2000  plane waves:     380
 k-point 84 :   0.1333 0.0000 0.2000  plane waves:     386
 k-point 85 :   0.2000-0.0000 0.2000  plane waves:     388
 k-point 86 :   0.2667-0.0000 0.2000  plane waves:     388
 k-point 87 :   0.3333 0.0000 0.2000  plane waves:     396
 k-point 88 :   0.4000-0.0000 0.2000  plane waves:     394
 k-point 89 :   0.4667 0.0000 0.2000  plane waves:     400
 k-point 90 :   0.0667 0.0667 0.2000  plane waves:     381
 k-point 91 :   0.1333 0.0667 0.2000  plane waves:     388
 k-point 92 :   0.2000 0.0667 0.2000  plane waves:     390
 k-point 93 :   0.2667 0.0667 0.2000  plane waves:     392
 k-point 94 :   0.3333 0.0667 0.2000  plane waves:     396
 k-point 95 :   0.4000 0.0667 0.2000  plane waves:     394
 k-point 96 :   0.4667 0.0667 0.2000  plane waves:     398
 k-point 97 :   0.1333 0.1333 0.2000  plane waves:     385
 k-point 98 :   0.2000 0.1333 0.2000  plane waves:     391
 k-point 99 :   0.2667 0.1333 0.2000  plane waves:     396
 k-point ** :   0.3333 0.1333 0.2000  plane waves:     393
 k-point ** :   0.4000 0.1333 0.2000  plane waves:     396
 k-point ** :   0.2000 0.2000 0.2000  plane waves:     392
 k-point ** :   0.2667 0.2000 0.2000  plane waves:     395
 k-point ** :   0.3333 0.2000 0.2000  plane waves:     392
 k-point ** :   0.4000 0.2000 0.2000  plane waves:     392
 k-point ** :   0.2667 0.2667 0.2000  plane waves:     396
 k-point ** :   0.3333 0.2667 0.2000  plane waves:     394
 k-point ** :   0.3333 0.3333 0.2000  plane waves:     396
 k-point ** :   0.0000 0.0000 0.2667  plane waves:     385
 k-point ** :   0.0667 0.0000 0.2667  plane waves:     375
 k-point ** :   0.1333 0.0000 0.2667  plane waves:     381
 k-point ** :   0.2000-0.0000 0.2667  plane waves:     387
 k-point ** :   0.2667-0.0000 0.2667  plane waves:     388
 k-point ** :   0.3333 0.0000 0.2667  plane waves:     395
 k-point ** :   0.4000-0.0000 0.2667  plane waves:     395
 k-point ** :   0.4667 0.0000 0.2667  plane waves:     398
 k-point ** :   0.0667 0.0667 0.2667  plane waves:     378
 k-point ** :   0.1333 0.0667 0.2667  plane waves:     387
 k-point ** :   0.2000 0.0667 0.2667  plane waves:     391
 k-point ** :   0.2667 0.0667 0.2667  plane waves:     391
 k-point ** :   0.3333 0.0667 0.2667  plane waves:     394
 k-point ** :   0.4000 0.0667 0.2667  plane waves:     395
 k-point ** :   0.4667 0.0667 0.2667  plane waves:     393
 k-point ** :   0.1333 0.1333 0.2667  plane waves:     391
 k-point ** :   0.2000 0.1333 0.2667  plane waves:     392
 k-point ** :   0.2667 0.1333 0.2667  plane waves:     391
 k-point ** :   0.3333 0.1333 0.2667  plane waves:     396
 k-point ** :   0.4000 0.1333 0.2667  plane waves:     394
 k-point ** :   0.2000 0.2000 0.2667  plane waves:     395
 k-point ** :   0.2667 0.2000 0.2667  plane waves:     394
 k-point ** :   0.3333 0.2000 0.2667  plane waves:     394
 k-point ** :   0.4000 0.2000 0.2667  plane waves:     392
 k-point ** :   0.2667 0.2667 0.2667  plane waves:     398
 k-point ** :   0.3333 0.2667 0.2667  plane waves:     395
 k-point ** :   0.3333 0.3333 0.2667  plane waves:     393
 k-point ** :   0.0000 0.0000 0.3333  plane waves:     367
 k-point ** :   0.0667 0.0000 0.3333  plane waves:     369
 k-point ** :   0.1333 0.0000 0.3333  plane waves:     378
 k-point ** :   0.2000-0.0000 0.3333  plane waves:     386
 k-point ** :   0.2667-0.0000 0.3333  plane waves:     389
 k-point ** :   0.3333 0.0000 0.3333  plane waves:     396
 k-point ** :   0.4000-0.0000 0.3333  plane waves:     399
 k-point ** :   0.4667 0.0000 0.3333  plane waves:     395
 k-point ** :   0.0667 0.0667 0.3333  plane waves:     380
 k-point ** :   0.1333 0.0667 0.3333  plane waves:     384
 k-point ** :   0.2000 0.0667 0.3333  plane waves:     392
 k-point ** :   0.2667 0.0667 0.3333  plane waves:     392
 k-point ** :   0.3333 0.0667 0.3333  plane waves:     392
 k-point ** :   0.4000 0.0667 0.3333  plane waves:     393
 k-point ** :   0.4667 0.0667 0.3333  plane waves:     391
 k-point ** :   0.1333 0.1333 0.3333  plane waves:     389
 k-point ** :   0.2000 0.1333 0.3333  plane waves:     390
 k-point ** :   0.2667 0.1333 0.3333  plane waves:     393
 k-point ** :   0.3333 0.1333 0.3333  plane waves:     395
 k-point ** :   0.4000 0.1333 0.3333  plane waves:     395
 k-point ** :   0.2000 0.2000 0.3333  plane waves:     389
 k-point ** :   0.2667 0.2000 0.3333  plane waves:     393
 k-point ** :   0.3333 0.2000 0.3333  plane waves:     397
 k-point ** :   0.4000 0.2000 0.3333  plane waves:     399
 k-point ** :   0.2667 0.2667 0.3333  plane waves:     396
 k-point ** :   0.3333 0.2667 0.3333  plane waves:     392
 k-point ** :   0.3333 0.3333 0.3333  plane waves:     399
 k-point ** :   0.0000 0.0000 0.4000  plane waves:     367
 k-point ** :   0.0667 0.0000 0.4000  plane waves:     370
 k-point ** :   0.1333 0.0000 0.4000  plane waves:     380
 k-point ** :   0.2000-0.0000 0.4000  plane waves:     386
 k-point ** :   0.2667-0.0000 0.4000  plane waves:     394
 k-point ** :   0.3333 0.0000 0.4000  plane waves:     395
 k-point ** :   0.4000-0.0000 0.4000  plane waves:     393
 k-point ** :   0.4667 0.0000 0.4000  plane waves:     388
 k-point ** :   0.0667 0.0667 0.4000  plane waves:     382
 k-point ** :   0.1333 0.0667 0.4000  plane waves:     383
 k-point ** :   0.2000 0.0667 0.4000  plane waves:     392
 k-point ** :   0.2667 0.0667 0.4000  plane waves:     393
 k-point ** :   0.3333 0.0667 0.4000  plane waves:     393
 k-point ** :   0.4000 0.0667 0.4000  plane waves:     393
 k-point ** :   0.4667 0.0667 0.4000  plane waves:     393
 k-point ** :   0.1333 0.1333 0.4000  plane waves:     389
 k-point ** :   0.2000 0.1333 0.4000  plane waves:     392
 k-point ** :   0.2667 0.1333 0.4000  plane waves:     390
 k-point ** :   0.3333 0.1333 0.4000  plane waves:     395
 k-point ** :   0.4000 0.1333 0.4000  plane waves:     396
 k-point ** :   0.2000 0.2000 0.4000  plane waves:     389
 k-point ** :   0.2667 0.2000 0.4000  plane waves:     391
 k-point ** :   0.3333 0.2000 0.4000  plane waves:     393
 k-point ** :   0.4000 0.2000 0.4000  plane waves:     392
 k-point ** :   0.2667 0.2667 0.4000  plane waves:     392
 k-point ** :   0.3333 0.2667 0.4000  plane waves:     391
 k-point ** :   0.3333 0.3333 0.4000  plane waves:     396
 k-point ** :   0.0000 0.0000 0.4667  plane waves:     360
 k-point ** :   0.0667 0.0000 0.4667  plane waves:     368
 k-point ** :   0.1333 0.0000 0.4667  plane waves:     379
 k-point ** :   0.2000-0.0000 0.4667  plane waves:     384
 k-point ** :   0.2667-0.0000 0.4667  plane waves:     393
 k-point ** :   0.3333 0.0000 0.4667  plane waves:     394
 k-point ** :   0.4000-0.0000 0.4667  plane waves:     396
 k-point ** :   0.4667 0.0000 0.4667  plane waves:     391
 k-point ** :   0.0667 0.0667 0.4667  plane waves:     377
 k-point ** :   0.1333 0.0667 0.4667  plane waves:     382
 k-point ** :   0.2000 0.0667 0.4667  plane waves:     392
 k-point ** :   0.2667 0.0667 0.4667  plane waves:     393
 k-point ** :   0.3333 0.0667 0.4667  plane waves:     394
 k-point ** :   0.4000 0.0667 0.4667  plane waves:     391
 k-point ** :   0.4667 0.0667 0.4667  plane waves:     393
 k-point ** :   0.1333 0.1333 0.4667  plane waves:     388
 k-point ** :   0.2000 0.1333 0.4667  plane waves:     392
 k-point ** :   0.2667 0.1333 0.4667  plane waves:     392
 k-point ** :   0.3333 0.1333 0.4667  plane waves:     394
 k-point ** :   0.4000 0.1333 0.4667  plane waves:     393
 k-point ** :   0.2000 0.2000 0.4667  plane waves:     384
 k-point ** :   0.2667 0.2000 0.4667  plane waves:     390
 k-point ** :   0.3333 0.2000 0.4667  plane waves:     390
 k-point ** :   0.4000 0.2000 0.4667  plane waves:     398
 k-point ** :   0.2667 0.2667 0.4667  plane waves:     390
 k-point ** :   0.3333 0.2667 0.4667  plane waves:     390
 k-point ** :   0.3333 0.3333 0.4667  plane waves:     402

 maximum and minimum number of plane-waves per node :        73       52

 maximum number of plane-waves:       403
 maximum index in each direction: 
   IXMAX=    4   IYMAX=    4   IZMAX=    6
   IXMIN=   -4   IYMIN=   -4   IZMIN=   -6

 WARNING: aliasing errors must be expected set NGX to  18 to avoid them
 WARNING: aliasing errors must be expected set NGY to  18 to avoid them
 WARNING: aliasing errors must be expected set NGZ to  26 to avoid them
 aliasing errors are usually negligible using standard VASP settings
 and one can safely disregard these warnings

 real space projection operators:
  total allocation   :        369.84 KBytes
  max/ min on nodes  :         62.58         61.03


 parallel 3D FFT for wavefunctions:
    minimum data exchange during FFTs selected (reduces bandwidth)
 parallel 3D FFT for charge:
    minimum data exchange during FFTs selected (reduces bandwidth)


 total amount of memory used by VASP on root node    34867. kBytes
========================================================================

   base      :      30000. kBytes
   nonlr-proj:        121. kBytes
   fftplans  :         82. kBytes
   grid      :        182. kBytes
   one-center:         31. kBytes
   wavefun   :       4451. kBytes
 
     INWAV:  cpu time    0.00: real time    0.00
 Broyden mixing: mesh for mixing (old mesh)
   NGX =  9   NGY =  9   NGZ = 13
  (NGX  = 24   NGY  = 24   NGZ  = 40)
  gives a total of   1053 points

 initial charge density was supplied:
 charge density of overlapping atoms calculated
 number of electron      18.0000000 magnetization       2.0000000
 keeping initial charge density in first step


--------------------------------------------------------------------------------------------------------


 Maximum index for non-local projection operator          218
 Maximum index for augmentation-charges          462 (set IRDMAX)


--------------------------------------------------------------------------------------------------------


 First call to EWALD:  gamma=   0.637
 Maximum number of real-space cells 3x 3x 2
 Maximum number of reciprocal cells 3x 3x 4

 FEWALD executed in parallel
    FEWALD:  cpu time    0.00: real time    0.00


----------------------------------------- Iteration    1(   1)  ---------------------------------------


    POTLOK:  cpu time    0.01: real time    0.01
    SETDIJ:  cpu time    0.01: real time    0.01
     EDDAV:  cpu time    2.08: real time    2.09
       DOS:  cpu time    0.04: real time    0.05
    --------------------------------------------
      LOOP:  cpu time    2.14: real time    2.15

 eigenvalue-minimisations  : 12278
 total energy-change (2. order) : 0.7332365E+02  (-0.7312160E+03)
 number of electron      18.0000000 magnetization       2.0000000
 augmentation part       18.0000000 magnetization       2.0000000

 Free energy of the ion-electron system (eV)
  ---------------------------------------------------
  alpha Z        PSCENC =        78.60156271
  Ewald energy   TEWEN  =     -1524.83234024
  -Hartree energ DENC   =      -298.76180751
  -exchange      EXHF   =         0.00000000
  -V(xc)+E(xc)   XCENC  =        33.73926806
  PAW double counting   =      1441.79823131    -1547.83988098
  entropy T*S    EENTRO =        -0.00041665
  eigenvalues    EBANDS =       263.90356087
  atomic energy  EATOM  =      1626.71546820
  ---------------------------------------------------
  free energy    TOTEN  =        73.32364578 eV

  energy without entropy =       73.32406242  energy(sigma->0) =       73.32378466


--------------------------------------------------------------------------------------------------------




----------------------------------------- Iteration    1(   2)  ---------------------------------------


     EDDAV:  cpu time    2.05: real time    2.05
       DOS:  cpu time    0.05: real time    0.05
    --------------------------------------------
      LOOP:  cpu time    2.10: real time    2.10

 eigenvalue-minimisations  : 12102
 total energy-change (2. order) :-0.8765412E+02  (-0.8153451E+02)
 number of electron      18.0000000 magnetization       2.0000000
 augmentation part       18.0000000 magnetization       2.0000000

 Free energy of the ion-electron system (eV)
  ---------------------------------------------------
  alpha Z        PSCENC =        78.60156271
  Ewald energy   TEWEN  =     -1524.83234024
  -Hartree energ DENC   =      -298.76180751
  -exchange      EXHF   =         0.00000000
  -V(xc)+E(xc)   XCENC  =        33.73926806
  PAW double counting   =      1441.79823131    -1547.83988098
  entropy T*S    EENTRO =         0.00015536
  eigenvalues    EBANDS =       176.24886734
  atomic energy  EATOM  =      1626.71546820
  ---------------------------------------------------
  free energy    TOTEN  =       -14.33047575 eV

  energy without entropy =      -14.33063111  energy(sigma->0) =      -14.33052754


--------------------------------------------------------------------------------------------------------




----------------------------------------- Iteration    1(   3)  ---------------------------------------


     EDDAV:  cpu time    2.35: real time    2.35
       DOS:  cpu time    0.06: real time    0.06
    --------------------------------------------
      LOOP:  cpu time    2.41: real time    2.42

 eigenvalue-minimisations  : 14070
[...]
      2       6.5495      1.00000
      3       7.9911      1.00000
      4       8.1320      1.00000
      5       9.0808      1.00000
      6       9.2313      1.00000
      7      10.0895      1.03541
      8      10.2263      0.39504
      9      11.3652     -0.00000
     10      11.4871     -0.00000
     11      12.6697     -0.00000
     12      13.0425      0.00000
     13      19.9064      0.00000
     14      20.3468      0.00000

 k-point   209 :       0.4000    0.1333    0.4667
  band No.  band energies     occupation 
      1       6.5212      1.00000
      2       6.6235      1.00000
      3       7.9691      1.00000
      4       8.0973      1.00000
      5       9.1578      1.00000
      6       9.4001      1.00000
      7      10.2964      0.00357
      8      10.4170     -0.00721
      9      11.3469     -0.00000
     10      11.4316     -0.00000
     11      13.3997      0.00000
     12      13.6959      0.00000
     13      18.5862      0.00000
     14      18.7981      0.00000

 k-point   210 :       0.2000    0.2000    0.4667
  band No.  band energies     occupation 
      1       6.1124      1.00000
      2       6.3809      1.00000
      3       8.1367      1.00000
      4       8.1739      1.00000
      5       8.7257      1.00000
      6       8.7661      1.00000
      7       9.8792      1.00001
      8      10.0565      1.02430
      9      11.3693     -0.00000
     10      11.4376     -0.00000
     11      11.9947     -0.00000
     12      12.3447     -0.00000
     13      23.3182      0.00000
     14      23.6683      0.00000

 k-point   211 :       0.2667    0.2000    0.4667
  band No.  band energies     occupation 
      1       6.5734      1.00000
      2       6.7172      1.00000
      3       8.0928      1.00000
      4       8.2127      1.00000
      5       8.7030      1.00000
      6       8.7803      1.00000
      7       9.9049      1.00006
      8      10.0747      1.03210
      9      11.3967     -0.00000
     10      11.5187     -0.00000
     11      12.8672     -0.00000
     12      13.2306      0.00000
     13      21.1876      0.00000
     14      21.6642      0.00000

 k-point   212 :       0.3333    0.2000    0.4667
  band No.  band energies     occupation 
      1       6.8074      1.00000
      2       6.8979      1.00000
      3       8.0621      1.00000
      4       8.2351      1.00000
      5       8.6811      1.00000
      6       8.8533      1.00000
      7      10.0610      1.02638
      8      10.1863      0.72357
      9      11.3504     -0.00000
     10      11.4553     -0.00000
     11      13.9178      0.00000
     12      14.2594      0.00000
     13      19.2910      0.00000
     14      19.6853      0.00000

 k-point   213 :       0.4000    0.2000    0.4667
  band No.  band energies     occupation 
      1       6.8641      1.00000
      2       6.9567      1.00000
      3       8.0661      1.00000
      4       8.2340      1.00000
      5       8.6578      1.00000
      6       8.8800      1.00000
      7      10.1697      0.83626
      8      10.2746      0.07654
      9      11.3198     -0.00000
     10      11.3863     -0.00000
     11      14.6094      0.00000
     12      14.7683      0.00000
     13      18.5587      0.00000
     14      18.5961      0.00000

 k-point   214 :       0.2667    0.2667    0.4667
  band No.  band energies     occupation 
      1       6.9905      1.00000
      2       7.0381      1.00000
      3       8.0741      1.00000
      4       8.2421      1.00000
      5       8.5017      1.00000
      6       8.6495      1.00000
      7       9.9366      1.00031
      8      10.0856      1.03499
      9      11.3591     -0.00000
     10      11.4655     -0.00000
     11      14.0901      0.00000
     12      14.4685      0.00000
     13      20.1738      0.00000
     14      20.4742      0.00000

 k-point   215 :       0.3333    0.2667    0.4667
  band No.  band energies     occupation 
      1       7.2302      1.00000
      2       7.2882      1.00000
      3       8.0095      1.00000
      4       8.1118      1.00000
      5       8.4785      1.00000
      6       8.5737      1.00000
      7      10.0231      1.01068
      8      10.1435      0.96084
      9      11.3047     -0.00000
     10      11.3622     -0.00000
     11      15.3829      0.00000
     12      15.6432      0.00000
     13      18.6964      0.00000
     14      19.0130      0.00000

 k-point   216 :       0.3333    0.3333    0.4667
  band No.  band energies     occupation 
      1       7.6330      1.00000
      2       7.6694      1.00000
      3       7.7151      1.00000
      4       7.7151      1.00000
      5       8.5155      1.00000
      6       8.5155      1.00000
      7      10.0079      1.00658
      8      10.1255      1.00831
      9      11.2971     -0.00000
     10      11.2971     -0.00000
     11      16.5003      0.00000
     12      16.5003      0.00000
     13      17.9177      0.00000
     14      18.5068      0.00000


--------------------------------------------------------------------------------------------------------


 soft charge-density along one line, spin component           1
         0         1         2         3         4         5         6         7         8         9
 total charge-density along one line
 
 soft charge-density along one line, spin component           2
         0         1         2         3         4         5         6         7         8         9
 total charge-density along one line
 
 pseudopotential strength for first ion, spin component:           1
 -0.644  -0.000   0.000   0.000   0.000  -1.277  -0.000   0.000
 -0.000  -0.647  -0.000  -0.000  -0.000  -0.000  -1.280  -0.000
  0.000  -0.000  -0.646  -0.000  -0.000   0.000  -0.000  -1.279
  0.000  -0.000  -0.000  -0.647   0.000   0.000  -0.000  -0.000
  0.000  -0.000  -0.000   0.000  -0.644   0.000  -0.000  -0.000
 -1.277  -0.000   0.000   0.000   0.000  -1.851  -0.000   0.000
 -0.000  -1.280  -0.000  -0.000  -0.000  -0.000  -1.854  -0.000
  0.000  -0.000  -1.279  -0.000  -0.000   0.000  -0.000  -1.853
  0.000  -0.000  -0.000  -1.280   0.000   0.000  -0.000  -0.000
  0.000  -0.000  -0.000   0.000  -1.277   0.000  -0.000  -0.000
  0.000  -0.000   0.000  -0.000  -0.000   0.000  -0.000   0.000
  0.000  -0.000   0.000  -0.000  -0.000   0.000  -0.000   0.000
  0.000   0.000  -0.000  -0.000  -0.001   0.000   0.000  -0.000
 -0.000   0.000   0.000   0.000  -0.000  -0.000   0.000   0.000
 -0.001  -0.000  -0.000   0.000   0.000  -0.001  -0.000  -0.000
  0.000   0.000  -0.000  -0.000  -0.001   0.000   0.000  -0.000
 -0.000   0.000   0.000   0.000  -0.000  -0.000   0.000   0.000
 -0.001  -0.000  -0.000   0.000   0.000  -0.001  -0.000  -0.000
 pseudopotential strength for first ion, spin component:           2
  0.697  -0.000   0.000   0.000   0.000   0.008  -0.000   0.000
 -0.000   0.703  -0.000  -0.000  -0.000  -0.000   0.013  -0.000
  0.000  -0.000   0.686  -0.000  -0.000   0.000  -0.000  -0.003
  0.000  -0.000  -0.000   0.703   0.000   0.000  -0.000  -0.000
  0.000  -0.000  -0.000   0.000   0.697   0.000  -0.000  -0.000
  0.008  -0.000   0.000   0.000   0.000  -0.620  -0.000   0.000
 -0.000   0.013  -0.000  -0.000  -0.000  -0.000  -0.615  -0.000
  0.000  -0.000  -0.003  -0.000  -0.000   0.000  -0.000  -0.631
  0.000  -0.000  -0.000   0.013   0.000   0.000  -0.000  -0.000
  0.000  -0.000  -0.000   0.000   0.008   0.000  -0.000  -0.000
  0.000  -0.000   0.000  -0.000  -0.000   0.000  -0.000   0.000
  0.000  -0.000   0.000  -0.000  -0.000   0.000  -0.000   0.000
  0.000   0.000   0.000  -0.000  -0.000   0.000   0.000   0.000
 -0.000   0.000   0.000   0.000  -0.000  -0.000   0.000   0.000
 -0.000  -0.000  -0.000   0.000   0.000  -0.000  -0.000  -0.000
  0.000   0.000   0.000  -0.000  -0.000   0.000   0.000   0.000
 -0.000   0.000   0.000   0.000  -0.000  -0.000   0.000   0.000
 -0.000  -0.000  -0.000   0.000   0.000  -0.000  -0.000  -0.000
 total augmentation occupancy for first ion, spin component:           1
  2.915  -0.000   0.000   0.000   0.000  -1.563  -0.000  -0.000  -0.000  -0.000  -0.000   0.000   0.000   0.000   0.043  -0.000
 -0.000   3.028   0.000  -0.000   0.000  -0.000  -1.618   0.000   0.000   0.000   0.000  -0.000   0.000   0.000  -0.000   0.000
  0.000   0.000   2.781   0.000  -0.000  -0.000   0.000  -1.522   0.000   0.000  -0.026   0.001  -0.000   0.000   0.000   0.000
 -0.000  -0.000   0.000   3.028   0.000  -0.000   0.000  -0.000  -1.618  -0.000   0.000   0.000  -0.000  -0.000   0.000  -0.000
  0.000   0.000  -0.000  -0.000   2.915  -0.000   0.000   0.000   0.000  -1.563   0.000  -0.000   0.043  -0.000  -0.000  -0.003
 -1.563   0.000  -0.000   0.000   0.000   1.760  -0.000   0.000   0.000   0.000   0.000  -0.000  -0.000  -0.000  -0.060   0.000
 -0.000  -1.618  -0.000   0.000  -0.000  -0.000   1.762  -0.000  -0.000   0.000  -0.000  -0.000  -0.000   0.000   0.000   0.000
 -0.000   0.000  -1.522   0.000   0.000   0.000  -0.000   1.810   0.000  -0.000   0.032  -0.002   0.000   0.000  -0.000  -0.000
  0.000   0.000   0.000  -1.618   0.000   0.000  -0.000   0.000   1.762   0.000   0.000  -0.000  -0.000   0.000  -0.000  -0.000
 -0.000  -0.000   0.000   0.000  -1.563   0.000  -0.000  -0.000   0.000   1.760  -0.000   0.000  -0.060  -0.000   0.000   0.005
 -0.000  -0.000  -0.026   0.000   0.000   0.000  -0.000   0.032  -0.000  -0.000   2.300  -0.272   0.000  -0.000  -0.000  -0.000
  0.000  -0.000   0.001   0.000  -0.000  -0.000   0.000  -0.002  -0.000   0.000  -0.272   0.040   0.000   0.000  -0.000  -0.000
  0.000   0.000  -0.000   0.000   0.043  -0.000   0.000   0.000   0.000  -0.060   0.000   0.000   0.310   0.000  -0.000  -0.030
 -0.000  -0.000  -0.000  -0.000   0.000   0.000  -0.000  -0.000   0.000   0.000  -0.000  -0.000  -0.000   0.319   0.000   0.000
  0.043   0.000   0.000   0.000  -0.000  -0.060  -0.000  -0.000   0.000   0.000  -0.000  -0.000  -0.000  -0.000   0.310   0.000
 -0.000   0.000   0.000  -0.000  -0.003   0.000   0.000  -0.000   0.000   0.005   0.000  -0.000  -0.030   0.000   0.000   0.003
  0.000   0.000   0.000   0.000   0.000   0.000   0.000  -0.000  -0.000  -0.000   0.000   0.000   0.000  -0.030   0.000  -0.000
 -0.003  -0.000  -0.000  -0.000   0.000   0.005  -0.000   0.000   0.000  -0.000  -0.000   0.000   0.000   0.000  -0.030  -0.000
 total augmentation occupancy for first ion, spin component:           2
  2.077  -0.000   0.000   0.000   0.000  -0.990   0.000  -0.000   0.000   0.000   0.000  -0.000  -0.000   0.000  -0.003   0.000
 -0.000   2.121  -0.000  -0.000   0.000   0.000  -1.022   0.000   0.000  -0.000  -0.000  -0.000  -0.000  -0.000  -0.000   0.000
  0.000  -0.000   2.084   0.000  -0.000  -0.000  -0.000  -0.993   0.000   0.000   0.001  -0.001   0.000  -0.000  -0.000  -0.000
  0.000  -0.000   0.000   2.121   0.000   0.000   0.000  -0.000  -1.022  -0.000  -0.000   0.000  -0.000   0.000   0.000   0.000
  0.000  -0.000  -0.000   0.000   2.077  -0.000  -0.000   0.000   0.000  -0.990  -0.000   0.000  -0.003   0.000   0.000   0.000
 -0.990   0.000  -0.000   0.000  -0.000   0.279   0.000   0.000  -0.000  -0.000  -0.000   0.000   0.000   0.000   0.007  -0.000
 -0.000  -1.022  -0.000   0.000   0.000   0.000   0.307  -0.000  -0.000  -0.000  -0.000   0.000  -0.000  -0.000   0.000   0.000
 -0.000   0.000  -0.993   0.000   0.000   0.000  -0.000   0.267   0.000  -0.000  -0.003   0.001  -0.000   0.000   0.000   0.000
 -0.000   0.000   0.000  -1.022  -0.000   0.000  -0.000   0.000   0.307  -0.000   0.000   0.000  -0.000  -0.000   0.000   0.000
 -0.000  -0.000   0.000   0.000  -0.990  -0.000  -0.000  -0.000  -0.000   0.279   0.000  -0.000   0.007  -0.000  -0.000  -0.000
  0.000   0.000   0.001   0.000  -0.000  -0.000  -0.000  -0.003   0.000   0.000  -0.302   0.091  -0.000  -0.000   0.000  -0.000
 -0.000  -0.000  -0.001  -0.000   0.000   0.000  -0.000   0.001  -0.000  -0.000   0.091  -0.016  -0.000   0.000   0.000   0.000
 -0.000   0.000   0.000  -0.000  -0.003   0.000   0.000  -0.000  -0.000   0.007   0.000  -0.000  -0.035  -0.000   0.000   0.005
 -0.000  -0.000  -0.000   0.000   0.000   0.000   0.000   0.000  -0.000  -0.000   0.000   0.000  -0.000  -0.040   0.000  -0.000
 -0.003  -0.000  -0.000   0.000   0.000   0.007  -0.000   0.000   0.000  -0.000   0.000   0.000   0.000   0.000  -0.035  -0.000
  0.000   0.000  -0.000   0.000   0.000  -0.000  -0.000   0.000   0.000  -0.000  -0.000   0.000   0.005  -0.000  -0.000  -0.001
  0.000   0.000   0.000  -0.000   0.000  -0.000  -0.000   0.000   0.000  -0.000   0.000   0.000  -0.000   0.005   0.000  -0.000
  0.000   0.000   0.000  -0.000  -0.000  -0.000  -0.000  -0.000  -0.000   0.000   0.000  -0.000  -0.000  -0.000   0.005   0.000


------------------------ aborting loop because EDIFF is reached ----------------------------------------


 


 total charge     
 
# of ion     s       p       d       tot
----------------------------------------
  1        0.488   0.520   7.258   8.266
  2        0.488   0.520   7.258   8.266
------------------------------------------------
tot        0.977   1.040  14.516  16.533
 


 magnetization (x)
 
# of ion     s       p       d       tot
----------------------------------------
  1       -0.015  -0.055   1.705   1.636
  2       -0.015  -0.055   1.705   1.636
------------------------------------------------
tot       -0.030  -0.109   3.411   3.271
 
    CHARGE:  cpu time    0.08: real time    0.08
    FORLOC:  cpu time    0.00: real time    0.00
    FORNL :  cpu time    0.44: real time    0.45
    STRESS:  cpu time    1.33: real time    1.33
    FORCOR:  cpu time    0.00: real time    0.01
    FORHAR:  cpu time    0.00: real time    0.00
    MIXING:  cpu time    0.00: real time    0.00
    OFIELD:  cpu time    0.00: real time    0.00

  Number of pair interactions contributing to vdW energy:   36798
  Edisp (eV):   -0.38177
    FORVDW:  cpu time    0.01: real time    0.01

  FORCE on cell =-STRESS in cart. coord.  units (eV):
  Direction    XX          YY          ZZ          XY          YZ          ZX
  --------------------------------------------------------------------------------------
  Alpha Z    77.91638    77.91638    77.91638
  Ewald    -510.74347  -510.74346  -499.05471    -0.00001     0.00000     0.00000
  Hartree    86.68390    86.68391    91.91799    -0.00000    -0.00000    -0.00000
  E(xc)     -92.50508   -92.50498   -92.51602     0.00008     0.00000     0.00000
  Local     -14.80456   -14.80506   -31.29952    -0.00041    -0.00001    -0.00001
  n-local   -10.03010    -9.81912    -9.65334    -6.36969     1.89379     1.85600
  augment   311.11463   311.11497   310.90828     0.00029     0.00001     0.00000
  Kinetic   153.40846   150.64382   151.85358     3.99586     0.21679     0.80934
  Fock        0.00000     0.00000     0.00000     0.00000     0.00000     0.00000
  vdW         0.13928     0.13928     0.09892    -0.00000    -0.00000    -0.00000
  -------------------------------------------------------------------------------------
  Total      -0.09741    -0.09741     0.17155     0.00000    -0.00000    -0.00000
  in kB      -7.17714    -7.17714    12.64008     0.00000    -0.00000    -0.00000
  external pressure =       -0.57 kB  Pullay stress =        0.00 kB


 VOLUME and BASIS-vectors are now :
 -----------------------------------------------------------------------------
  energy-cutoff  :      400.00
  volume of cell :       21.75
      direct lattice vectors                 reciprocal lattice vectors
     2.500927526  0.000000000  0.000000000     0.399851651  0.230854458  0.000000000
    -1.250463763  2.165866771  0.000000000    -0.000000000  0.461708916  0.000000000
    -0.000000000 -0.000000000  4.014492751    -0.000000000 -0.000000000  0.249097473

  length of vectors
     2.500927526  2.500927526  4.014492751     0.461708916  0.461708916  0.249097473


 FORCES acting on ions
    electron-ion (+dipol)            ewald-force                    non-local-force                 convergence-correction
 -----------------------------------------------------------------------------------------------
   0.351E-05 0.233E-05 0.213E-04   -.397E-05 -.308E-05 -.368E-04   -.694E-17 -.208E-16 -.347E-17   0.185E-08 -.202E-08 -.319E-09
   -.606E-05 -.208E-05 -.224E-04   0.397E-05 0.308E-05 0.368E-04   -.347E-17 0.208E-16 -.347E-17   -.614E-09 0.163E-08 -.340E-09
 -----------------------------------------------------------------------------------------------
   -.254E-05 0.257E-06 -.107E-05   0.270E-14 -.813E-14 -.663E-17   -.104E-16 0.893E-26 -.694E-17   0.124E-08 -.389E-09 -.659E-09
 
 
 POSITION                                       TOTAL-FORCE (eV/Angst)
 -----------------------------------------------------------------------------------
      0.00000      1.44391      1.00362         0.000000     -0.000000     -0.000000
      1.25046      0.72196      3.01087        -0.000000      0.000000      0.000000
 -----------------------------------------------------------------------------------
    total drift:                               -0.000003      0.000000     -0.000001


--------------------------------------------------------------------------------------------------------



  FREE ENERGIE OF THE ION-ELECTRON SYSTEM (eV)
  ---------------------------------------------------
  free  energy   TOTEN  =       -14.45622722 eV

  energy  without entropy=      -14.45603644  energy(sigma->0) =      -14.45616363
 
 d Force = 0.0000000E+00[ 0.000E+00, 0.000E+00]  d Energy = 0.4359760E-03-0.436E-03
 d Force = 0.0000000E+00[ 0.000E+00, 0.000E+00]  d Ewald  = 0.2577690E+01-0.258E+01


--------------------------------------------------------------------------------------------------------


    POTLOK:  cpu time    0.01: real time    0.01


--------------------------------------------------------------------------------------------------------


 Quasi-Newton relaxation of ions (Broydens 2nd method)
  g(Force)  = 0.366E-44   g(Stress)= 0.234E-03

 retain information from N=  1 steps
 eigenvalues of (default step * inverse Hessian matrix)
  average eigenvalue of G=   2.2105
 eigenvalue spectrum of G is  2.2105


--------------------------------------------------------------------------------------------------------


  
 reached required accuracy - stopping structural energy minimisation
 writing wavefunctions
     LOOP+:  cpu time   13.18: real time   14.34
    4ORBIT:  cpu time    0.00: real time    0.00
 


 total charge     
 
# of ion     s       p       d       tot
----------------------------------------
  1        0.488   0.520   7.258   8.266
  2        0.488   0.520   7.258   8.266
------------------------------------------------
tot        0.977   1.040  14.516  16.533
 


 magnetization (x)
 
# of ion     s       p       d       tot
----------------------------------------
  1       -0.015  -0.055   1.705   1.636
  2       -0.015  -0.055   1.705   1.636
------------------------------------------------
tot       -0.030  -0.109   3.411   3.271
 

 total amount of memory used by VASP on root node    34867. kBytes
========================================================================

   base      :      30000. kBytes
   nonlr-proj:        121. kBytes
   fftplans  :         82. kBytes
   grid      :        182. kBytes
   one-center:         31. kBytes
   wavefun   :       4451. kBytes
 
  
  
 General timing and accounting informations for this job:
 ========================================================
  
                  Total CPU time used (sec):       70.246
                            User time (sec):       69.775
                          System time (sec):        0.471
                         Elapsed time (sec):       74.463
  
                   Maximum memory used (kb):       99184.
                   Average memory used (kb):           0.
  
                          Minor page faults:        35118
                          Major page faults:            6
                 Voluntary context switches:         1345
