 vasp.5.3.5 31Mar14 (build Apr 25 2014 16:28:52) complex                        
  
 executed on             LinuxIFC date 2019.02.22  15:31:00
 running on   12 total cores
 distrk:  each k-point on   12 cores,    1 groups
 distr:  one band on NCORES_PER_BAND=   6 cores,    2 groups


--------------------------------------------------------------------------------------------------------


 INCAR:
 POTCAR:    PAW_PBE Ir 06Sep2000                  
 POTCAR:    PAW_PBE Ir 06Sep2000                  
  local pseudopotential read in
  partial core-charges read in
  partial kinetic energy density read in
  atomic valenz-charges read in
  non local Contribution for L=           2  read in
    real space projection operators read in
  non local Contribution for L=           2  read in
    real space projection operators read in
  non local Contribution for L=           0  read in
    real space projection operators read in
  non local Contribution for L=           0  read in
    real space projection operators read in
  non local Contribution for L=           1  read in
    real space projection operators read in
  non local Contribution for L=           1  read in
    real space projection operators read in
    PAW grid and wavefunctions read in
 
   number of l-projection  operators is LMAX  =           6
   number of lm-projection operators is LMMAX =          18
 

 ----------------------------------------------------------------------------- 
|                                                                             |
|  ADVICE TO THIS USER RUNNING 'VASP/VAMP'   (HEAR YOUR MASTER'S VOICE ...):  |
|                                                                             |
|      You have a (more or less) 'small supercell' and for smaller cells      |
|      it is recommended  to use the reciprocal-space projection scheme!      |
|      The real space optimization is not  efficient for small cells and it   |
|      is also less accurate ...                                              |
|      Therefore set LREAL=.FALSE. in the  INCAR file                         |
|                                                                             |
 ----------------------------------------------------------------------------- 

 Optimization of the real space projectors (new method)

 maximal supplied QI-value         = 14.36
 optimisation between [QCUT,QGAM] = [ 13.50, 27.00] = [ 51.04,204.15] Ry 
 Optimized for a Real-space Cutoff    1.49 Angstroem

   l    n(q)    QCUT    max X(q) W(low)/X(q) W(high)/X(q)  e(spline) 
   2     11    13.500   134.116    0.27E-03    0.27E-03    0.12E-05
   2     11    13.500   130.192    0.27E-03    0.27E-03    0.12E-05
   0     12    13.500    60.310    0.56E-04    0.59E-05    0.98E-06
   0     12    13.500    39.218    0.52E-04    0.59E-05    0.91E-06
   1     12    13.500    18.439    0.42E-04    0.80E-04    0.71E-06
   1     12    13.500    12.760    0.31E-04    0.64E-04    0.59E-06
  PAW_PBE Ir 06Sep2000                  :
 energy of atom  1       EATOM= -560.1833
 kinetic energy error for atom=    0.0005 (will be added to EATOM!!)
 
 
 POSCAR: Ir                                      
  positions in direct lattice
  velocities in cartesian coordinates
 exchange correlation table for  LEXCH =        8
   RHO(1)=    0.500       N(1)  =     2000
   RHO(2)=  100.500       N(2)  =     4000
 


--------------------------------------------------------------------------------------------------------


 ion  position               nearest neighbor table
   1  0.000  0.000  0.000-   2 2.71   3 2.71   4 2.71   2 2.71   3 2.71   2 2.71   4 2.71   2 2.71
                             3 2.71   4 2.71   3 2.71   4 2.71
   2  0.000  0.500  0.500-   1 2.71   3 2.71   4 2.71   1 2.71   4 2.71   1 2.71   3 2.71   1 2.71
                             3 2.71   4 2.71   4 2.71   3 2.71
   3  0.500  0.000  0.500-   1 2.71   2 2.71   4 2.71   1 2.71   4 2.71   2 2.71   4 2.71   4 2.71
                             1 2.71   2 2.71   1 2.71   2 2.71
   4  0.500  0.500  0.000-   1 2.71   2 2.71   3 2.71   2 2.71   3 2.71   1 2.71   3 2.71   3 2.71
                             1 2.71   2 2.71   2 2.71   1 2.71
 
  LATTYP: Found a simple cubic cell.
 ALAT       =     3.8390000000
  
  Lattice vectors:
  
 A1 = (   3.8390000000,   0.0000000000,   0.0000000000)
 A2 = (   0.0000000000,   3.8390000000,   0.0000000000)
 A3 = (   0.0000000000,   0.0000000000,   3.8390000000)


Analysis of symmetry for initial positions (statically):
=====================================================================
 Subroutine PRICEL returns following result:
 
  LATTYP: Found a face centered cubic cell.
 ALAT       =     3.8390000000
  
  Lattice vectors:
  
 A1 = (   1.9195000000,   1.9195000000,   0.0000000000)
 A2 = (   1.9195000000,   0.0000000000,  -1.9195000000)
 A3 = (   0.0000000000,   1.9195000000,  -1.9195000000)
 
   4 primitive cells build up your supercell.
 

 Routine SETGRP: Setting up the symmetry group for a 
 simple cubic supercell.


 Subroutine GETGRP returns: Found 48 space group operations
 (whereof 48 operations were pure point group operations)
 out of a pool of 48 trial point group operations.


The static configuration has the point symmetry O_h .


Analysis of symmetry for dynamics (positions and initial velocities):
=====================================================================
 Subroutine PRICEL returns following result:
 
  LATTYP: Found a face centered cubic cell.
 ALAT       =     3.8390000000
  
  Lattice vectors:
  
 A1 = (   1.9195000000,   1.9195000000,   0.0000000000)
 A2 = (   1.9195000000,   0.0000000000,  -1.9195000000)
 A3 = (   0.0000000000,   1.9195000000,  -1.9195000000)
 
   4 primitive cells build up your supercell.
 

 Routine SETGRP: Setting up the symmetry group for a 
 simple cubic supercell.


 Subroutine GETGRP returns: Found 48 space group operations
 (whereof 48 operations were pure point group operations)
 out of a pool of 48 trial point group operations.


The dynamic configuration has the point symmetry O_h .
 
 
 KPOINTS: K-POINTS                                

Automatic generation of k-mesh.
Space group operators:
 irot       det(A)        alpha          n_x          n_y          n_z        tau_x        tau_y        tau_z
    1     1.000000     0.000000     1.000000     0.000000     0.000000     0.000000     0.000000     0.000000
    2    -1.000000     0.000000     1.000000     0.000000     0.000000     0.000000     0.000000     0.000000
    3     1.000000   120.000000    -0.577350    -0.577350    -0.577350     0.000000     0.000000     0.000000
    4    -1.000000   120.000000    -0.577350    -0.577350    -0.577350     0.000000     0.000000     0.000000
    5     1.000000   120.000000     0.577350     0.577350     0.577350     0.000000     0.000000     0.000000
    6    -1.000000   120.000000     0.577350     0.577350     0.577350     0.000000     0.000000     0.000000
    7     1.000000    90.000000     0.000000     0.000000    -1.000000     0.000000     0.000000     0.000000
    8    -1.000000    90.000000     0.000000     0.000000    -1.000000     0.000000     0.000000     0.000000
    9     1.000000   180.000000     0.000000     0.707107     0.707107     0.000000     0.000000     0.000000
   10    -1.000000   180.000000     0.000000     0.707107     0.707107     0.000000     0.000000     0.000000
   11     1.000000    90.000000     0.000000     1.000000     0.000000     0.000000     0.000000     0.000000
   12    -1.000000    90.000000     0.000000     1.000000     0.000000     0.000000     0.000000     0.000000
   13     1.000000   180.000000     0.000000     0.000000     1.000000     0.000000     0.000000     0.000000
   14    -1.000000   180.000000     0.000000     0.000000     1.000000     0.000000     0.000000     0.000000
   15     1.000000   120.000000    -0.577350     0.577350     0.577350     0.000000     0.000000     0.000000
   16    -1.000000   120.000000    -0.577350     0.577350     0.577350     0.000000     0.000000     0.000000
   17     1.000000   120.000000    -0.577350     0.577350    -0.577350     0.000000     0.000000     0.000000
   18    -1.000000   120.000000    -0.577350     0.577350    -0.577350     0.000000     0.000000     0.000000
   19     1.000000    90.000000     0.000000     0.000000     1.000000     0.000000     0.000000     0.000000
   20    -1.000000    90.000000     0.000000     0.000000     1.000000     0.000000     0.000000     0.000000
   21     1.000000    90.000000    -1.000000     0.000000     0.000000     0.000000     0.000000     0.000000
   22    -1.000000    90.000000    -1.000000     0.000000     0.000000     0.000000     0.000000     0.000000
   23     1.000000   180.000000     0.707107     0.000000     0.707107     0.000000     0.000000     0.000000
   24    -1.000000   180.000000     0.707107     0.000000     0.707107     0.000000     0.000000     0.000000
   25     1.000000   120.000000     0.577350    -0.577350     0.577350     0.000000     0.000000     0.000000
   26    -1.000000   120.000000     0.577350    -0.577350     0.577350     0.000000     0.000000     0.000000
   27     1.000000   120.000000    -0.577350    -0.577350     0.577350     0.000000     0.000000     0.000000
   28    -1.000000   120.000000    -0.577350    -0.577350     0.577350     0.000000     0.000000     0.000000
   29     1.000000   180.000000     1.000000     0.000000     0.000000     0.000000     0.000000     0.000000
   30    -1.000000   180.000000     1.000000     0.000000     0.000000     0.000000     0.000000     0.000000
   31     1.000000    90.000000     0.000000    -1.000000     0.000000     0.000000     0.000000     0.000000
   32    -1.000000    90.000000     0.000000    -1.000000     0.000000     0.000000     0.000000     0.000000
   33     1.000000   180.000000     0.707107     0.707107     0.000000     0.000000     0.000000     0.000000
   34    -1.000000   180.000000     0.707107     0.707107     0.000000     0.000000     0.000000     0.000000
   35     1.000000    90.000000     1.000000     0.000000     0.000000     0.000000     0.000000     0.000000
   36    -1.000000    90.000000     1.000000     0.000000     0.000000     0.000000     0.000000     0.000000
   37     1.000000   120.000000     0.577350    -0.577350    -0.577350     0.000000     0.000000     0.000000
   38    -1.000000   120.000000     0.577350    -0.577350    -0.577350     0.000000     0.000000     0.000000
   39     1.000000   180.000000     0.000000     1.000000     0.000000     0.000000     0.000000     0.000000
   40    -1.000000   180.000000     0.000000     1.000000     0.000000     0.000000     0.000000     0.000000
   41     1.000000   120.000000     0.577350     0.577350    -0.577350     0.000000     0.000000     0.000000
   42    -1.000000   120.000000     0.577350     0.577350    -0.577350     0.000000     0.000000     0.000000
   43     1.000000   180.000000     0.000000    -0.707107     0.707107     0.000000     0.000000     0.000000
   44    -1.000000   180.000000     0.000000    -0.707107     0.707107     0.000000     0.000000     0.000000
   45     1.000000   180.000000     0.707107    -0.707107     0.000000     0.000000     0.000000     0.000000
   46    -1.000000   180.000000     0.707107    -0.707107     0.000000     0.000000     0.000000     0.000000
   47     1.000000   180.000000     0.707107     0.000000    -0.707107     0.000000     0.000000     0.000000
   48    -1.000000   180.000000     0.707107     0.000000    -0.707107     0.000000     0.000000     0.000000
 
 Subroutine IBZKPT returns following result:
 ===========================================
 
 Found     28 irreducible k-points:
 
 Following reciprocal coordinates:
            Coordinates               Weight
  0.000000  0.000000  0.000000      1.000000
  0.076923  0.000000  0.000000      4.000000
  0.153846  0.000000  0.000000      4.000000
  0.230769  0.000000  0.000000      4.000000
  0.307692  0.000000  0.000000      4.000000
  0.384615  0.000000  0.000000      4.000000
  0.461538  0.000000  0.000000      4.000000
  0.076923  0.076923  0.000000      4.000000
  0.153846  0.076923  0.000000      8.000000
  0.230769  0.076923  0.000000      8.000000
  0.307692  0.076923  0.000000      8.000000
  0.384615  0.076923  0.000000      8.000000
  0.461538  0.076923  0.000000      8.000000
  0.153846  0.153846  0.000000      4.000000
  0.230769  0.153846  0.000000      8.000000
  0.307692  0.153846  0.000000      8.000000
  0.384615  0.153846  0.000000      8.000000
  0.461538  0.153846  0.000000      8.000000
  0.230769  0.230769  0.000000      4.000000
  0.307692  0.230769  0.000000      8.000000
  0.384615  0.230769  0.000000      8.000000
  0.461538  0.230769  0.000000      8.000000
  0.307692  0.307692  0.000000      4.000000
  0.384615  0.307692  0.000000      8.000000
  0.461538  0.307692  0.000000      8.000000
  0.384615  0.384615  0.000000      4.000000
  0.461538  0.384615  0.000000      8.000000
  0.461538  0.461538  0.000000      4.000000
 
 Following cartesian coordinates:
            Coordinates               Weight
  0.000000  0.000000  0.000000      1.000000
  0.020037  0.000000  0.000000      4.000000
  0.040075  0.000000  0.000000      4.000000
  0.060112  0.000000  0.000000      4.000000
  0.080149  0.000000  0.000000      4.000000
  0.100186  0.000000  0.000000      4.000000
  0.120224  0.000000  0.000000      4.000000
  0.020037  0.020037  0.000000      4.000000
  0.040075  0.020037  0.000000      8.000000
  0.060112  0.020037  0.000000      8.000000
  0.080149  0.020037  0.000000      8.000000
  0.100186  0.020037  0.000000      8.000000
  0.120224  0.020037  0.000000      8.000000
  0.040075  0.040075  0.000000      4.000000
  0.060112  0.040075  0.000000      8.000000
  0.080149  0.040075  0.000000      8.000000
  0.100186  0.040075  0.000000      8.000000
  0.120224  0.040075  0.000000      8.000000
  0.060112  0.060112  0.000000      4.000000
  0.080149  0.060112  0.000000      8.000000
  0.100186  0.060112  0.000000      8.000000
  0.120224  0.060112  0.000000      8.000000
  0.080149  0.080149  0.000000      4.000000
  0.100186  0.080149  0.000000      8.000000
  0.120224  0.080149  0.000000      8.000000
  0.100186  0.100186  0.000000      4.000000
  0.120224  0.100186  0.000000      8.000000
  0.120224  0.120224  0.000000      4.000000
 


--------------------------------------------------------------------------------------------------------




 Dimension of arrays:
   k-points           NKPTS =     28   k-points in BZ     NKDIM =     28   number of bands    NBANDS=     22
   number of dos      NEDOS =   3000   number of ions     NIONS =      4
   non local maximal  LDIM  =      6   non local SUM 2l+1 LMDIM =     18
   total plane-waves  NPLWV =  21952
   max r-space proj   IRMAX =   5403   max aug-charges    IRDMAX=  28252
   dimension x,y,z NGX =    28 NGY =   28 NGZ =   28
   dimension x,y,z NGXF=    56 NGYF=   56 NGZF=   56
   support grid    NGXF=    56 NGYF=   56 NGZF=   56
   ions per type =               4
 NGX,Y,Z   is equivalent  to a cutoff of  12.13, 12.13, 12.13 a.u.
 NGXF,Y,Z  is equivalent  to a cutoff of  24.25, 24.25, 24.25 a.u.


 I would recommend the setting:
   dimension x,y,z NGX =    25 NGY =   25 NGZ =   25
 SYSTEM =  Bulk                                    
 POSCAR =  Ir                                      

 Startparameter for this run:
   NWRITE =      0    write-flag & timer
   PREC   = normal    normal or accurate (medium, high low for compatibility)
   ISTART =      0    job   : 0-new  1-cont  2-samecut
   ICHARG =      2    charge: 1-file 2-atom 10-const
   ISPIN  =      1    spin polarized calculation?
   LNONCOLLINEAR =      F non collinear calculations
   LSORBIT =      F    spin-orbit coupling
   INIWAV =      1    electr: 0-lowe 1-rand  2-diag
   LASPH  =      F    aspherical Exc in radial PAW
   METAGGA=      F    non-selfconsistent MetaGGA calc.

 Electronic Relaxation 1
   ENCUT  =  700.0 eV  51.45 Ry    7.17 a.u.   8.28  8.28  8.28*2*pi/ulx,y,z
   ENINI  =  700.0     initial cutoff
   ENAUG  =  319.0 eV  augmentation charge cutoff
   NELM   =     80;   NELMIN=  2; NELMDL=  0     # of ELM steps 
   EDIFF  = 0.1E-04   stopping-criterion for ELM
   LREAL  =      T    real-space projection
   NLSPLINE    = F    spline interpolate recip. space projectors
   LCOMPAT=      F    compatible to vasp.4.4
   GGA_COMPAT  = T    GGA compatible to vasp.4.4-vasp.4.6
   LMAXPAW     = -100 max onsite density
   LMAXMIX     =    2 max onsite mixed and CHGCAR
   VOSKOWN=      0    Vosko Wilk Nusair interpolation
   ROPT   =   -0.00050
 Ionic relaxation
   EDIFFG = -.1E-01   stopping-criterion for IOM
   NSW    =      1    number of steps for IOM
   NBLOCK =      1;   KBLOCK =      1    inner block; outer block 
   IBRION =      2    ionic relax: 0-MD 1-quasi-New 2-CG
   NFREE  =      1    steps in history (QN), initial steepest desc. (CG)
   ISIF   =      3    stress and relaxation
   IWAVPR =     11    prediction:  0-non 1-charg 2-wave 3-comb
   ISYM   =      2    0-nonsym 1-usesym 2-fastsym
   LCORR  =      T    Harris-Foulkes like correction to forces

   POTIM  = 0.1000    time-step for ionic-motion
   TEIN   =    0.0    initial temperature
   TEBEG  =    0.0;   TEEND  =   0.0 temperature during run
   SMASS  =  -3.00    Nose mass-parameter (am)
   estimated Nose-frequenzy (Omega)   =  0.10E-29 period in steps =****** mass=  -0.337E-27a.u.
   SCALEE = 1.0000    scale energy and forces
   NPACO  =    256;   APACO  = 16.0  distance and # of slots for P.C.
   PSTRESS=    0.0 pullay stress

  Mass of Ions in am
   POMASS = 192.22
  Ionic Valenz
   ZVAL   =   9.00
  Atomic Wigner-Seitz radii
   RWIGS  =  -1.00
  virtual crystal weights 
   VCA    =   1.00
   NELECT =      36.0000    total number of electrons
   NUPDOWN=      -1.0000    fix difference up-down

 DOS related values:
   EMIN   =  10.00;   EMAX   =-10.00  energy-range for DOS
   EFERMI =   0.00
   ISMEAR =     1;   SIGMA  =   0.10  broadening in eV -4-tet -1-fermi 0-gaus

 Electronic relaxation 2 (details)
   IALGO  =     68    algorithm
   LDIAG  =      T    sub-space diagonalisation (order eigenvalues)
   LSUBROT=      F    optimize rotation matrix (better conditioning)
   TURBO    =      0    0=normal 1=particle mesh
   IRESTART =      0    0=no restart 2=restart with 2 vectors
   NREBOOT  =      0    no. of reboots
   NMIN     =      0    reboot dimension
   EREF     =   0.00    reference energy to select bands
   IMIX   =      4    mixing-type and parameters
     AMIX     =   0.40;   BMIX     =  1.00
     AMIX_MAG =   1.60;   BMIX_MAG =  1.00
     AMIN     =   0.10
     WC   =   100.;   INIMIX=   1;  MIXPRE=   1;  MAXMIX= -45

 Intra band minimization:
   WEIMIN = 0.0010     energy-eigenvalue tresh-hold
   EBREAK =  0.11E-06  absolut break condition
   DEPER  =   0.30     relativ break condition  

   TIME   =   0.40     timestep for ELM

  volume/ion in A,a.u.               =      14.14        95.45
  Fermi-wavevector in a.u.,A,eV,Ry     =   1.408070  2.660866 26.975739  1.982661
  Thomas-Fermi vector in A             =   2.530265
 
 Write flags
   LWAVE  =      T    write WAVECAR
   LCHARG =      T    write CHGCAR
   LVTOT  =      F    write LOCPOT, total local potential
   LVHAR  =      F    write LOCPOT, Hartree potential only
   LELF   =      F    write electronic localiz. function (ELF)
   LORBIT =     11    0 simple, 1 ext, 2 COOP (PROOUT)


 Dipole corrections
   LMONO  =      F    monopole corrections only (constant potential shift)
   LDIPOL =      F    correct potential (dipole corrections)
   IDIPOL =      0    1-x, 2-y, 3-z, 4-all directions 
   EPSILON=  1.0000000 bulk dielectric constant

 Exchange correlation treatment:
   GGA     =    PE    GGA type
   LEXCH   =     8    internal setting for exchange type
   VOSKOWN=      0    Vosko Wilk Nusair interpolation
   LHFCALC =     F    Hartree Fock is set to
   LHFONE  =     F    Hartree Fock one center treatment
   AEXX    =    0.0000 exact exchange contribution

 Linear response parameters
   LEPSILON=     F    determine dielectric tensor
   LRPA    =     F    only Hartree local field effects (RPA)
   LNABLA  =     F    use nabla operator in PAW spheres
   LVEL    =     F    velocity operator in full k-point grid
   LINTERFAST=   F  fast interpolation
   KINTER  =     0    interpolate to denser k-point grid
   CSHIFT  =0.1000    complex shift for real part using Kramers Kronig
   OMEGAMAX=  -1.0    maximum frequency
   DEG_THRESHOLD= 0.2000000E-02 threshold for treating states as degnerate
   RTIME   =    0.100 relaxation time in fs

 Orbital magnetization related:
   ORBITALMAG=     F  switch on orbital magnetization
   LCHIMAG   =     F  perturbation theory with respect to B field
   DQ        =  0.001000  dq finite difference perturbation B field



--------------------------------------------------------------------------------------------------------


 conjugate gradient relaxation of ions
 charge density and potential will be updated during run
 non-spin polarized calculation
 RMM-DIIS sequential band-by-band and
  variant of blocked Davidson during initial phase
 perform sub-space diagonalisation
    before iterative eigenvector-optimisation
 modified Broyden-mixing scheme, WC =      100.0
 initial mixing is a Kerker type mixing with AMIX =  0.4000 and BMIX =      1.0000
 Hartree-type preconditioning will be used
 using additional bands            4
 real space projection scheme for non local part
 use partial core corrections
 calculate Harris-corrections to forces 
   (improved forces if not selfconsistent)
 use gradient corrections 
 use of overlap-Matrix (Vanderbilt PP)
 Methfessel and Paxton  Order N= 1 SIGMA  =   0.10


--------------------------------------------------------------------------------------------------------


  energy-cutoff  :      700.00
  volume of cell :       56.58
      direct lattice vectors                 reciprocal lattice vectors
     3.839000000  0.000000000  0.000000000     0.260484501  0.000000000  0.000000000
     0.000000000  3.839000000  0.000000000     0.000000000  0.260484501  0.000000000
     0.000000000  0.000000000  3.839000000     0.000000000  0.000000000  0.260484501

  length of vectors
     3.839000000  3.839000000  3.839000000     0.260484501  0.260484501  0.260484501


 
 k-points in units of 2pi/SCALE and weight: K-POINTS                                
   0.00000000  0.00000000  0.00000000       0.006
   0.02003727  0.00000000  0.00000000       0.024
   0.04007454  0.00000000  0.00000000       0.024
   0.06011181  0.00000000  0.00000000       0.024
   0.08014908  0.00000000  0.00000000       0.024
   0.10018635  0.00000000  0.00000000       0.024
   0.12022362  0.00000000  0.00000000       0.024
   0.02003727  0.02003727  0.00000000       0.024
   0.04007454  0.02003727  0.00000000       0.047
   0.06011181  0.02003727  0.00000000       0.047
   0.08014908  0.02003727  0.00000000       0.047
   0.10018635  0.02003727  0.00000000       0.047
   0.12022362  0.02003727  0.00000000       0.047
   0.04007454  0.04007454  0.00000000       0.024
   0.06011181  0.04007454  0.00000000       0.047
   0.08014908  0.04007454  0.00000000       0.047
   0.10018635  0.04007454  0.00000000       0.047
   0.12022362  0.04007454  0.00000000       0.047
   0.06011181  0.06011181  0.00000000       0.024
   0.08014908  0.06011181  0.00000000       0.047
   0.10018635  0.06011181  0.00000000       0.047
   0.12022362  0.06011181  0.00000000       0.047
   0.08014908  0.08014908  0.00000000       0.024
   0.10018635  0.08014908  0.00000000       0.047
   0.12022362  0.08014908  0.00000000       0.047
   0.10018635  0.10018635  0.00000000       0.024
   0.12022362  0.10018635  0.00000000       0.047
   0.12022362  0.12022362  0.00000000       0.024
 
 k-points in reciprocal lattice and weights: K-POINTS                                
   0.00000000  0.00000000  0.00000000       0.006
   0.07692308  0.00000000  0.00000000       0.024
   0.15384615  0.00000000  0.00000000       0.024
   0.23076923  0.00000000  0.00000000       0.024
   0.30769231  0.00000000  0.00000000       0.024
   0.38461538  0.00000000  0.00000000       0.024
   0.46153846  0.00000000  0.00000000       0.024
   0.07692308  0.07692308  0.00000000       0.024
   0.15384615  0.07692308  0.00000000       0.047
   0.23076923  0.07692308  0.00000000       0.047
   0.30769231  0.07692308  0.00000000       0.047
   0.38461538  0.07692308  0.00000000       0.047
   0.46153846  0.07692308  0.00000000       0.047
   0.15384615  0.15384615  0.00000000       0.024
   0.23076923  0.15384615  0.00000000       0.047
   0.30769231  0.15384615  0.00000000       0.047
   0.38461538  0.15384615  0.00000000       0.047
   0.46153846  0.15384615  0.00000000       0.047
   0.23076923  0.23076923  0.00000000       0.024
   0.30769231  0.23076923  0.00000000       0.047
   0.38461538  0.23076923  0.00000000       0.047
   0.46153846  0.23076923  0.00000000       0.047
   0.30769231  0.30769231  0.00000000       0.024
   0.38461538  0.30769231  0.00000000       0.047
   0.46153846  0.30769231  0.00000000       0.047
   0.38461538  0.38461538  0.00000000       0.024
   0.46153846  0.38461538  0.00000000       0.047
   0.46153846  0.46153846  0.00000000       0.024
 
 position of ions in fractional coordinates (direct lattice) 
   0.00000000  0.00000000  0.00000000
   0.00000000  0.50000000  0.50000000
   0.50000000  0.00000000  0.50000000
   0.50000000  0.50000000  0.00000000
 
 position of ions in cartesian coordinates  (Angst):
   0.00000000  0.00000000  0.00000000
   0.00000000  1.91950000  1.91950000
   1.91950000  0.00000000  1.91950000
   1.91950000  1.91950000  0.00000000
 


--------------------------------------------------------------------------------------------------------


 k-point  1 :   0.0000 0.0000 0.0000  plane waves:    2373
 k-point  2 :   0.0769 0.0000 0.0000  plane waves:    2381
 k-point  3 :   0.1538 0.0000 0.0000  plane waves:    2405
 k-point  4 :   0.2308 0.0000 0.0000  plane waves:    2393
 k-point  5 :   0.3077 0.0000 0.0000  plane waves:    2388
 k-point  6 :   0.3846 0.0000 0.0000  plane waves:    2384
 k-point  7 :   0.4615 0.0000 0.0000  plane waves:    2384
 k-point  8 :   0.0769 0.0769 0.0000  plane waves:    2403
 k-point  9 :   0.1538 0.0769 0.0000  plane waves:    2397
 k-point 10 :   0.2308 0.0769 0.0000  plane waves:    2378
 k-point 11 :   0.3077 0.0769 0.0000  plane waves:    2380
 k-point 12 :   0.3846 0.0769 0.0000  plane waves:    2379
 k-point 13 :   0.4615 0.0769 0.0000  plane waves:    2382
 k-point 14 :   0.1538 0.1538 0.0000  plane waves:    2388
 k-point 15 :   0.2308 0.1538 0.0000  plane waves:    2374
 k-point 16 :   0.3077 0.1538 0.0000  plane waves:    2377
 k-point 17 :   0.3846 0.1538 0.0000  plane waves:    2387
 k-point 18 :   0.4615 0.1538 0.0000  plane waves:    2373
 k-point 19 :   0.2308 0.2308 0.0000  plane waves:    2366
 k-point 20 :   0.3077 0.2308 0.0000  plane waves:    2376
 k-point 21 :   0.3846 0.2308 0.0000  plane waves:    2374
 k-point 22 :   0.4615 0.2308 0.0000  plane waves:    2378
 k-point 23 :   0.3077 0.3077 0.0000  plane waves:    2382
 k-point 24 :   0.3846 0.3077 0.0000  plane waves:    2372
 k-point 25 :   0.4615 0.3077 0.0000  plane waves:    2370
 k-point 26 :   0.3846 0.3846 0.0000  plane waves:    2372
 k-point 27 :   0.4615 0.3846 0.0000  plane waves:    2388
 k-point 28 :   0.4615 0.4615 0.0000  plane waves:    2390

 maximum and minimum number of plane-waves per node :       411      383

 maximum number of plane-waves:      2405
 maximum index in each direction: 
   IXMAX=    8   IYMAX=    8   IZMAX=    8
   IXMIN=   -8   IYMIN=   -8   IZMIN=   -8

 WARNING: aliasing errors must be expected set NGX to  34 to avoid them
 WARNING: aliasing errors must be expected set NGY to  34 to avoid them
 WARNING: aliasing errors must be expected set NGZ to  34 to avoid them
 aliasing errors are usually negligible using standard VASP settings
 and one can safely disregard these warnings

 real space projection operators:
  total allocation   :       2916.56 KBytes
  max/ min on nodes  :        529.59        408.09


 parallel 3D FFT for wavefunctions:
    minimum data exchange during FFTs selected (reduces bandwidth)
 parallel 3D FFT for charge:
    minimum data exchange during FFTs selected (reduces bandwidth)


 total amount of memory used by VASP on root node    34640. kBytes
========================================================================

   base      :      30000. kBytes
   nonlr-proj:        988. kBytes
   fftplans  :        658. kBytes
   grid      :        929. kBytes
   one-center:         15. kBytes
   wavefun   :       2050. kBytes
 
     INWAV:  cpu time    0.00: real time    0.00
 Broyden mixing: mesh for mixing (old mesh)
   NGX = 17   NGY = 17   NGZ = 17
  (NGX  = 56   NGY  = 56   NGZ  = 56)
  gives a total of   4913 points

 initial charge density was supplied:
 charge density of overlapping atoms calculated
 number of electron      36.0000000 magnetization 
 keeping initial charge density in first step


--------------------------------------------------------------------------------------------------------


 Maximum index for non-local projection operator          948
 Maximum index for augmentation-charges         2619 (set IRDMAX)


--------------------------------------------------------------------------------------------------------


 First call to EWALD:  gamma=   0.462
 Maximum number of real-space cells 3x 3x 3
 Maximum number of reciprocal cells 3x 3x 3

 FEWALD executed in parallel
    FEWALD:  cpu time    0.00: real time    0.00


----------------------------------------- Iteration    1(   1)  ---------------------------------------


    POTLOK:  cpu time    0.02: real time    0.02
    SETDIJ:  cpu time    0.01: real time    0.01
     EDDAV:  cpu time    0.98: real time    0.98
       DOS:  cpu time    0.00: real time    0.00
    --------------------------------------------
      LOOP:  cpu time    1.02: real time    1.02

 eigenvalue-minimisations  :  1232
 total energy-change (2. order) : 0.4504781E+03  (-0.1969225E+04)
 number of electron      36.0000000 magnetization 
 augmentation part       36.0000000 magnetization 

 Free energy of the ion-electron system (eV)
  ---------------------------------------------------
  alpha Z        PSCENC =       322.44667008
  Ewald energy   TEWEN  =     -2785.98809030
  -Hartree energ DENC   =      -156.37028835
  -exchange      EXHF   =         0.00000000
  -V(xc)+E(xc)   XCENC  =       -65.64981717
  PAW double counting   =      2205.55844415    -2044.28830016
  entropy T*S    EENTRO =        -0.00045556
  eigenvalues    EBANDS =       734.03885660
  atomic energy  EATOM  =      2240.73108321
  ---------------------------------------------------
  free energy    TOTEN  =       450.47810250 eV

  energy without entropy =      450.47855806  energy(sigma->0) =      450.47825435


--------------------------------------------------------------------------------------------------------




----------------------------------------- Iteration    1(   2)  ---------------------------------------


     EDDAV:  cpu time    0.98: real time    0.98
       DOS:  cpu time    0.01: real time    0.01
    --------------------------------------------
      LOOP:  cpu time    0.98: real time    2.40

 eigenvalue-minimisations  :  1232
 total energy-change (2. order) :-0.4542420E+03  (-0.4409664E+03)
 number of electron      36.0000000 magnetization 
 augmentation part       36.0000000 magnetization 

 Free energy of the ion-electron system (eV)
  ---------------------------------------------------
  alpha Z        PSCENC =       322.44667008
  Ewald energy   TEWEN  =     -2785.98809030
  -Hartree energ DENC   =      -156.37028835
  -exchange      EXHF   =         0.00000000
  -V(xc)+E(xc)   XCENC  =       -65.64981717
  PAW double counting   =      2205.55844415    -2044.28830016
  entropy T*S    EENTRO =        -0.00499101
  eigenvalues    EBANDS =       279.80135181
  atomic energy  EATOM  =      2240.73108321
  ---------------------------------------------------
  free energy    TOTEN  =        -3.76393773 eV

  energy without entropy =       -3.75894672  energy(sigma->0) =       -3.76227406


--------------------------------------------------------------------------------------------------------




----------------------------------------- Iteration    1(   3)  ---------------------------------------


     EDDAV:  cpu time    1.27: real time    1.27
       DOS:  cpu time    0.01: real time    0.01
    --------------------------------------------
      LOOP:  cpu time    1.28: real time    1.28

 eigenvalue-minimisations  :  1704
 total energy-change (2. order) :-0.3174785E+02  (-0.2970951E+02)
 number of electron      36.0000000 magnetization 
 augmentation part       36.0000000 magnetization 

 Free energy of the ion-electron system (eV)
  ---------------------------------------------------
  alpha Z        PSCENC =       322.44667008
  Ewald energy   TEWEN  =     -2785.98809030
  -Hartree energ DENC   =      -156.37028835
  -exchange      EXHF   =         0.00000000
  -V(xc)+E(xc)   XCENC  =       -65.64981717
  PAW double counting   =      2205.55844415    -2044.28830016
  entropy T*S    EENTRO =         0.00036939
  eigenvalues    EBANDS =       248.04814419
  atomic energy  EATOM  =      2240.73108321
  ---------------------------------------------------
  free energy    TOTEN  =       -35.51178495 eV

  energy without entropy =      -35.51215434  energy(sigma->0) =      -35.51190808


--------------------------------------------------------------------------------------------------------




----------------------------------------- Iteration    1(   4)  ---------------------------------------


     EDDAV:  cpu time    1.07: real time    1.07
       DOS:  cpu time    0.01: real time    0.01
    --------------------------------------------
      LOOP:  cpu time    1.08: real time    1.08

 eigenvalue-minimisations  :  1380
 total energy-change (2. order) :-0.1184818E+01  (-0.1169812E+01)
 number of electron      36.0000000 magnetization 
 augmentation part       36.0000000 magnetization 

 Free energy of the ion-electron system (eV)
  ---------------------------------------------------
  alpha Z        PSCENC =       322.44667008
  Ewald energy   TEWEN  =     -2785.98809030
  -Hartree energ DENC   =      -156.37028835
  -exchange      EXHF   =         0.00000000
  -V(xc)+E(xc)   XCENC  =       -65.64981717
  PAW double counting   =      2205.55844415    -2044.28830016
  entropy T*S    EENTRO =         0.00328873
  eigenvalues    EBANDS =       246.86040730
  atomic energy  EATOM  =      2240.73108321
  ---------------------------------------------------
  free energy    TOTEN  =       -36.69660250 eV

  energy without entropy =      -36.69989123  energy(sigma->0) =      -36.69769874


--------------------------------------------------------------------------------------------------------




----------------------------------------- Iteration    1(   5)  ---------------------------------------


     EDDAV:  cpu time    1.18: real time    1.18
       DOS:  cpu time    0.01: real time    0.01
    CHARGE:  cpu time    0.09: real time    0.09
    MIXING:  cpu time    0.00: real time    0.00
    --------------------------------------------
      LOOP:  cpu time    1.28: real time    1.28

 eigenvalue-minimisations  :  1566
 total energy-change (2. order) :-0.3450455E-01  (-0.3448699E-01)
 number of electron      35.9999992 magnetization 
 augmentation part        9.7682501 magnetization 

 Broyden mixing:
  rms(total) = 0.33526E+01    rms(broyden)= 0.33526E+01
  rms(prec ) = 0.38191E+01
  weight for this iteration     100.00

 Free energy of the ion-electron system (eV)
  ---------------------------------------------------
  alpha Z        PSCENC =       322.44667008
  Ewald energy   TEWEN  =     -2785.98809030
  -Hartree energ DENC   =      -156.37028835
  -exchange      EXHF   =         0.00000000
  -V(xc)+E(xc)   XCENC  =       -65.64981717
  PAW double counting   =      2205.55844415    -2044.28830016
  entropy T*S    EENTRO =         0.00331269
  eigenvalues    EBANDS =       246.82587880
  atomic energy  EATOM  =      2240.73108321
  ---------------------------------------------------
  free energy    TOTEN  =       -36.73110705 eV

  energy without entropy =      -36.73441974  energy(sigma->0) =      -36.73221128


--------------------------------------------------------------------------------------------------------




----------------------------------------- Iteration    1(   6)  ---------------------------------------


    POTLOK:  cpu time    0.02: real time    0.02
    SETDIJ:  cpu time    0.01: real time    0.01
    EDDIAG:  cpu time    0.16: real time    0.16
  RMM-DIIS:  cpu time    0.60: real time    0.60
    ORTHCH:  cpu time    0.01: real time    0.01
       DOS:  cpu time    0.01: real time    0.01
    CHARGE:  cpu time    0.09: real time    0.09
    MIXING:  cpu time    0.00: real time    0.00
    --------------------------------------------
      LOOP:  cpu time    0.91: real time    0.91

 eigenvalue-minimisations  :  1240
 total energy-change (2. order) : 0.1536249E+01  (-0.2757937E+00)
 number of electron      35.9999991 magnetization 
 augmentation part       10.1959712 magnetization 

 Broyden mixing:
  rms(total) = 0.15623E+01    rms(broyden)= 0.15623E+01
  rms(prec ) = 0.17285E+01
  weight for this iteration     100.00

 eigenvalues of (default mixing * dielectric matrix)
  average eigenvalue GAMMA=   1.8557
  1.8557

 Free energy of the ion-electron system (eV)
  ---------------------------------------------------
  alpha Z        PSCENC =       322.44667008
  Ewald energy   TEWEN  =     -2785.98809030
  -Hartree energ DENC   =      -135.51101761
  -exchange      EXHF   =         0.00000000
  -V(xc)+E(xc)   XCENC  =       -65.91085430
  PAW double counting   =      2693.63896816    -2537.83949085
  entropy T*S    EENTRO =        -0.00069324
  eigenvalues    EBANDS =       233.23856661
  atomic energy  EATOM  =      2240.73108321
  ---------------------------------------------------
  free energy    TOTEN  =       -35.19485824 eV

  energy without entropy =      -35.19416500  energy(sigma->0) =      -35.19462716


--------------------------------------------------------------------------------------------------------




----------------------------------------- Iteration    1(   7)  ---------------------------------------


    POTLOK:  cpu time    0.02: real time    0.02
    SETDIJ:  cpu time    0.01: real time    0.01
    EDDIAG:  cpu time    0.16: real time    0.16
  RMM-DIIS:  cpu time    0.61: real time    0.61
    ORTHCH:  cpu time    0.01: real time    0.01
       DOS:  cpu time    0.01: real time    0.01
    CHARGE:  cpu time    0.09: real time    0.09
    MIXING:  cpu time    0.00: real time    0.00
    --------------------------------------------
      LOOP:  cpu time    0.92: real time    0.93

 eigenvalue-minimisations  :  1255
 total energy-change (2. order) : 0.2556180E+00  (-0.2004504E+00)
 number of electron      35.9999991 magnetization 
 augmentation part       10.5203698 magnetization 

 Broyden mixing:
  rms(total) = 0.31718E+00    rms(broyden)= 0.31718E+00
  rms(prec ) = 0.32974E+00
  weight for this iteration     100.00

 eigenvalues of (default mixing * dielectric matrix)
  average eigenvalue GAMMA=   2.5249
  1.4895  3.5604

 Free energy of the ion-electron system (eV)
  ---------------------------------------------------
  alpha Z        PSCENC =       322.44667008
  Ewald energy   TEWEN  =     -2785.98809030
  -Hartree energ DENC   =      -121.31923513
  -exchange      EXHF   =         0.00000000
  -V(xc)+E(xc)   XCENC  =       -66.02140453
  PAW double counting   =      3230.27174956    -3079.48027446
  entropy T*S    EENTRO =        -0.00223883
  eigenvalues    EBANDS =       224.42250010
  atomic energy  EATOM  =      2240.73108321
  ---------------------------------------------------
  free energy    TOTEN  =       -34.93924028 eV

  energy without entropy =      -34.93700146  energy(sigma->0) =      -34.93849401


--------------------------------------------------------------------------------------------------------




----------------------------------------- Iteration    1(   8)  ---------------------------------------


    POTLOK:  cpu time    0.02: real time    0.02
    SETDIJ:  cpu time    0.01: real time    0.01
    EDDIAG:  cpu time    0.16: real time    0.16
  RMM-DIIS:  cpu time    0.63: real time    0.63
    ORTHCH:  cpu time    0.01: real time    0.01
       DOS:  cpu time    0.01: real time    0.01
    CHARGE:  cpu time    0.09: real time    0.09
    MIXING:  cpu time    0.00: real time    0.00
    --------------------------------------------
      LOOP:  cpu time    0.93: real time    0.94

 eigenvalue-minimisations  :  1285
 total energy-change (2. order) : 0.1727296E-01  (-0.1012666E-01)
 number of electron      35.9999991 magnetization 
 augmentation part       10.5294100 magnetization 

 Broyden mixing:
  rms(total) = 0.39930E-01    rms(broyden)= 0.39930E-01
  rms(prec ) = 0.86072E-01
  weight for this iteration     100.00

 eigenvalues of (default mixing * dielectric matrix)
  average eigenvalue GAMMA=   1.6214
  1.3327  1.7657  1.7657

 Free energy of the ion-electron system (eV)
  ---------------------------------------------------
  alpha Z        PSCENC =       322.44667008
  Ewald energy   TEWEN  =     -2785.98809030
  -Hartree energ DENC   =      -121.78655687
  -exchange      EXHF   =         0.00000000
  -V(xc)+E(xc)   XCENC  =       -66.01859430
  PAW double counting   =      3411.54289172    -3262.09431130
  entropy T*S    EENTRO =        -0.00213870
  eigenvalues    EBANDS =       226.24707913
  atomic energy  EATOM  =      2240.73108321
  ---------------------------------------------------
  free energy    TOTEN  =       -34.92196732 eV

  energy without entropy =      -34.91982862  energy(sigma->0) =      -34.92125442


--------------------------------------------------------------------------------------------------------




----------------------------------------- Iteration    1(   9)  ---------------------------------------


    POTLOK:  cpu time    0.02: real time    0.02
    SETDIJ:  cpu time    0.01: real time    0.01
    EDDIAG:  cpu time    0.16: real time    0.16
  RMM-DIIS:  cpu time    0.60: real time    0.61
    ORTHCH:  cpu time    0.01: real time    0.01
       DOS:  cpu time    0.01: real time    0.01
    CHARGE:  cpu time    0.09: real time    0.09
    MIXING:  cpu time    0.00: real time    0.00
    --------------------------------------------
      LOOP:  cpu time    0.91: real time    0.91

 eigenvalue-minimisations  :  1242
 total energy-change (2. order) : 0.2997265E-02  (-0.1469661E-02)
 number of electron      35.9999991 magnetization 
 augmentation part       10.5027698 magnetization 

 Broyden mixing:
  rms(total) = 0.50266E-01    rms(broyden)= 0.50266E-01
  rms(prec ) = 0.50838E-01
  weight for this iteration     100.00

 eigenvalues of (default mixing * dielectric matrix)
  average eigenvalue GAMMA=   1.9860
  0.9584  1.7080  2.6388  2.6388

 Free energy of the ion-electron system (eV)
  ---------------------------------------------------
  alpha Z        PSCENC =       322.44667008
  Ewald energy   TEWEN  =     -2785.98809030
  -Hartree energ DENC   =      -123.05901560
  -exchange      EXHF   =         0.00000000
  -V(xc)+E(xc)   XCENC  =       -66.01021054
  PAW double counting   =      3387.98072288    -3238.21607978
  entropy T*S    EENTRO =        -0.00218640
  eigenvalues    EBANDS =       227.19813639
  atomic energy  EATOM  =      2240.73108321
  ---------------------------------------------------
  free energy    TOTEN  =       -34.91897005 eV

  energy without entropy =      -34.91678366  energy(sigma->0) =      -34.91824126


--------------------------------------------------------------------------------------------------------




----------------------------------------- Iteration    1(  10)  ---------------------------------------


    POTLOK:  cpu time    0.02: real time    0.02
    SETDIJ:  cpu time    0.01: real time    0.01
    EDDIAG:  cpu time    0.16: real time    0.16
  RMM-DIIS:  cpu time    0.63: real time    0.63
    ORTHCH:  cpu time    0.01: real time    0.01
       DOS:  cpu time    0.01: real time    0.01
    CHARGE:  cpu time    0.09: real time    0.09
    MIXING:  cpu time    0.00: real time    0.00
    --------------------------------------------
      LOOP:  cpu time    0.93: real time    0.94

 eigenvalue-minimisations  :  1289
 total energy-change (2. order) :-0.7769163E-04  (-0.1336196E-03)
 number of electron      35.9999991 magnetization 
 augmentation part       10.4974689 magnetization 

 Broyden mixing:
  rms(total) = 0.97672E-02    rms(broyden)= 0.97672E-02
  rms(prec ) = 0.11527E-01
  weight for this iteration     100.00

 eigenvalues of (default mixing * dielectric matrix)
  average eigenvalue GAMMA=   1.7130
  2.6894  1.8500  1.8500  0.9370  1.2387

 Free energy of the ion-electron system (eV)
  ---------------------------------------------------
  alpha Z        PSCENC =       322.44667008
  Ewald energy   TEWEN  =     -2785.98809030
  -Hartree energ DENC   =      -123.24277701
  -exchange      EXHF   =         0.00000000
  -V(xc)+E(xc)   XCENC  =       -66.00670693
  PAW double counting   =      3408.23282777    -3258.44777292
  entropy T*S    EENTRO =        -0.00215450
  eigenvalues    EBANDS =       227.35787285
  atomic energy  EATOM  =      2240.73108321
  ---------------------------------------------------
  free energy    TOTEN  =       -34.91904775 eV

  energy without entropy =      -34.91689324  energy(sigma->0) =      -34.91832958


--------------------------------------------------------------------------------------------------------




----------------------------------------- Iteration    1(  11)  ---------------------------------------


    POTLOK:  cpu time    0.02: real time    0.02
    SETDIJ:  cpu time    0.01: real time    0.01
    EDDIAG:  cpu time    0.16: real time    0.16
  RMM-DIIS:  cpu time    0.51: real time    0.51
    ORTHCH:  cpu time    0.01: real time    0.01
       DOS:  cpu time    0.01: real time    0.01
    --------------------------------------------
      LOOP:  cpu time    0.73: real time    0.73

 eigenvalue-minimisations  :  1026
 total energy-change (2. order) : 0.7328404E-05  (-0.8087157E-05)
 number of electron      35.9999991 magnetization 
 augmentation part       10.4974689 magnetization 

 Free energy of the ion-electron system (eV)
  ---------------------------------------------------
  alpha Z        PSCENC =       322.44667008
  Ewald energy   TEWEN  =     -2785.98809030
  -Hartree energ DENC   =      -123.15886142
  -exchange      EXHF   =         0.00000000
  -V(xc)+E(xc)   XCENC  =       -66.00756353
  PAW double counting   =      3414.29487409    -3264.58730575
  entropy T*S    EENTRO =        -0.00215316
  eigenvalues    EBANDS =       227.35230636
  atomic energy  EATOM  =      2240.73108321
  ---------------------------------------------------
  free energy    TOTEN  =       -34.91904042 eV

  energy without entropy =      -34.91688726  energy(sigma->0) =      -34.91832270


--------------------------------------------------------------------------------------------------------




 average (electrostatic) potential at core
  the test charge radii are     1.2793
  (the norm of the test charge is              1.0000)
       1 -48.5210       2 -48.5210       3 -48.5210       4 -48.5210
 
 
 
 E-fermi :  10.4266     XC(G=0): -13.9636     alpha+bet :-15.7041


 k-point     1 :       0.0000    0.0000    0.0000
  band No.  band energies     occupation 
      1      -0.7161      2.00000
      2       2.5363      2.00000
      3       2.5363      2.00000
      4       2.5363      2.00000
      5       3.1350      2.00000
      6       3.1350      2.00000
      7       3.1350      2.00000
      8       6.6162      2.00000
      9       6.6162      2.00000
     10       6.6162      2.00000
     11       9.3300      2.00000
     12       9.3300      2.00000
     13      11.4073     -0.00000
     14      11.4073     -0.00000
     15      11.4077     -0.00000
     16      12.0189     -0.00000
     17      12.0189     -0.00000
     18      12.0189     -0.00000
     19      12.0189     -0.00000
     20      12.1205     -0.00000
     21      12.1205     -0.00000
     22      12.1205     -0.00000

 k-point     2 :       0.0769    0.0000    0.0000
  band No.  band energies     occupation 
      1      -0.6276      2.00000
      2       2.5748      2.00000
      3       2.6054      2.00000
      4       2.6054      2.00000
      5       3.1738      2.00000
      6       3.1954      2.00000
      7       3.1954      2.00000
      8       6.5469      2.00000
      9       6.6660      2.00000
     10       6.6660      2.00000
     11       9.2502      2.00000
     12       9.3563      2.00000
     13      10.9006     -0.00000
     14      10.9006     -0.00000
     15      11.2813     -0.00000
     16      11.2813     -0.00000
     17      11.3722     -0.00000
     18      11.7356     -0.00000
     19      11.8696     -0.00000
     20      11.8697     -0.00000
     21      12.0192     -0.00000
     22      12.0196     -0.00000

 k-point     3 :       0.1538    0.0000    0.0000
  band No.  band energies     occupation 
      1      -0.3658      2.00000
      2       2.6802      2.00000
      3       2.8070      2.00000
      4       2.8070      2.00000
      5       3.2893      2.00000
      6       3.3762      2.00000
      7       3.3762      2.00000
      8       6.3480      2.00000
      9       6.8150      2.00000
     10       6.8150      2.00000
     11       9.0205      2.00000
     12       9.4341      2.00000
     13       9.7797      2.00000
     14       9.7797      2.00000
     15      10.7968     -0.00000
     16      10.9188     -0.00000
     17      10.9188     -0.00000
     18      11.2700     -0.00000
     19      11.4625     -0.00000
     20      11.4625     -0.00000
     21      12.0201     -0.00000
     22      12.0201     -0.00000

 k-point     4 :       0.2308    0.0000    0.0000
  band No.  band energies     occupation 
      1       0.0578      2.00000
      2       2.8183      2.00000
      3       3.1221      2.00000
      4       3.1221      2.00000
      5       3.4787      2.00000
      6       3.6755      2.00000
      7       3.6755      2.00000
      8       6.0444      2.00000
      9       7.0615      2.00000
     10       7.0615      2.00000
     11       8.6701      2.00000
     12       8.7177      2.00000
     13       8.7177      2.00000
     14       9.5606      2.00000
     15       9.6633      2.00000
     16      10.3711      1.79776
     17      10.3711      1.79776
     18      10.8888     -0.00000
     19      10.8888     -0.00000
     20      11.1095     -0.00000
     21      12.0213     -0.00000
     22      12.0213     -0.00000

 k-point     5 :       0.3077    0.0000    0.0000
  band No.  band energies     occupation 
      1       0.6201      2.00000
      2       2.9175      2.00000
      3       3.5112      2.00000
      4       3.5112      2.00000
      5       3.7369      2.00000
      6       4.0903      2.00000
      7       4.0903      2.00000
      8       5.6687      2.00000
      9       7.4024      2.00000
     10       7.4024      2.00000
     11       7.7250      2.00000
     12       7.7250      2.00000
     13       8.2487      2.00000
     14       8.6017      2.00000
     15       9.7305      2.00000
     16       9.7311      2.00000
     17       9.7311      2.00000
     18      10.2366      2.02176
     19      10.2366      2.02176
     20      10.9037     -0.00000
     21      12.0226     -0.00000
     22      12.0226     -0.00000

 k-point     6 :       0.3846    0.0000    0.0000
  band No.  band energies     occupation 
      1       1.2793      2.00000
      2       2.8595      2.00000
      3       3.8989      2.00000
      4       3.8989      2.00000
      5       4.0564      2.00000
      6       4.6166      2.00000
      7       4.6166      2.00000
      8       5.2546      2.00000
      9       6.8106      2.00000
     10       6.8106      2.00000
     11       7.8196      2.00000
     12       7.8290      2.00000
     13       7.8332      2.00000
     14       7.8332      2.00000
     15       9.1345      2.00000
     16       9.1345      2.00000
     17       9.5700      2.00000
     18       9.5700      2.00000
     19       9.9368      2.00000
     20      10.6679     -0.00339
     21      12.0237     -0.00000
     22      12.0237     -0.00000

 k-point     7 :       0.4615    0.0000    0.0000
  band No.  band energies     occupation 
      1       1.9590      2.00000
      2       2.5324      2.00000
      3       4.1589      2.00000
      4       4.1589      2.00000
      5       4.4263      2.00000
      6       4.8322      2.00000
      7       5.2494      2.00000
      8       5.2494      2.00000
      9       5.9830      2.00000
     10       5.9830      2.00000
     11       7.4637      2.00000
     12       7.5173      2.00000
     13       8.3464      2.00000
     14       8.3464      2.00000
     15       8.7569      2.00000
     16       8.7569      2.00000
     17       8.9310      2.00000
     18       8.9310      2.00000
     19      10.1699      2.00171
     20      10.4182      1.14200
     21      12.0244     -0.00000
     22      12.0244     -0.00000

 k-point     8 :       0.0769    0.0769    0.0000
  band No.  band energies     occupation 
      1      -0.5402      2.00000
      2       2.6443      2.00000
      3       2.6443      2.00000
      4       2.6684      2.00000
      5       3.2336      2.00000
      6       3.2336      2.00000
      7       3.2594      2.00000
      8       6.5102      2.00000
      9       6.6853      2.00000
     10       6.7119      2.00000
     11       9.2258      2.00000
     12       9.3329      2.00000
     13      10.4735      0.29518
     14      10.6486     -0.00739
     15      10.6486     -0.00739
     16      11.1654     -0.00000
     17      11.2654     -0.00000
     18      11.2673     -0.00000
     19      11.8696     -0.00000
     20      11.8700     -0.00000
     21      11.9314     -0.00000
     22      12.9732     -0.00000

 k-point     9 :       0.1538    0.0769    0.0000
  band No.  band energies     occupation 
      1      -0.2814      2.00000
      2       2.7510      2.00000
      3       2.8474      2.00000
      4       2.8532      2.00000
      5       3.3473      2.00000
      6       3.4125      2.00000
      7       3.4495      2.00000
      8       6.3331      2.00000
      9       6.8185      2.00000
     10       6.8480      2.00000
     11       9.0250      2.00000
     12       9.3998      2.00000
     13       9.5510      2.00000
     14       9.5892      2.00000
     15      10.0075      2.00000
     16      10.8287     -0.00000
     17      10.9253     -0.00000
     18      11.1385     -0.00000
     19      11.4622     -0.00000
     20      11.8698     -0.00000
     21      11.8809     -0.00000
     22      12.3061     -0.00000

 k-point    10 :       0.2308    0.0769    0.0000
  band No.  band energies     occupation 
      1       0.1373      2.00000
      2       2.8909      2.00000
      3       3.1459      2.00000
      4       3.1652      2.00000
      5       3.5336      2.00000
      6       3.7085      2.00000
      7       3.7578      2.00000
      8       6.0419      2.00000
      9       7.0613      2.00000
     10       7.0674      2.00000
     11       8.5108      2.00000
     12       8.6211      2.00000
     13       8.6961      2.00000
     14       9.1371      2.00000
     15       9.5386      2.00000
     16      10.3126      2.06844
     17      10.4068      1.32817
     18      10.8315     -0.00000
     19      10.8879     -0.00000
     20      11.6367     -0.00000
     21      11.8669     -0.00000
     22      11.8700     -0.00000

 k-point    11 :       0.3077    0.0769    0.0000
  band No.  band energies     occupation 
      1       0.6936      2.00000
      2       2.9914      2.00000
      3       3.5196      2.00000
      4       3.5590      2.00000
      5       3.7873      2.00000
      6       4.1184      2.00000
      7       4.1676      2.00000
      8       5.6774      2.00000
      9       7.3408      2.00000
     10       7.4010      2.00000
     11       7.5425      2.00000
     12       7.6763      2.00000
     13       8.2469      2.00000
     14       8.3286      2.00000
     15       9.7023      2.00000
     16       9.7287      2.00000
     17       9.7911      2.00000
     18      10.2352      2.02092
     19      10.2947      2.06854
     20      11.1658     -0.00000
     21      11.8638     -0.00000
     22      11.8699     -0.00000

 k-point    12 :       0.3846    0.0769    0.0000
  band No.  band energies     occupation 
      1       1.3469      2.00000
      2       2.9313      2.00000
      3       3.9160      2.00000
      4       3.9533      2.00000
      5       4.1010      2.00000
      6       4.6379      2.00000
      7       4.6548      2.00000
      8       5.2739      2.00000
      9       6.6600      2.00000
     10       6.7907      2.00000
     11       7.4923      2.00000
     12       7.5689      2.00000
     13       7.8313      2.00000
     14       8.1660      2.00000
     15       9.1329      2.00000
     16       9.2033      2.00000
     17       9.5683      2.00000
     18       9.6528      2.00000
     19       9.9612      2.00000
     20      10.8226     -0.00000
     21      11.8644     -0.00000
     22      11.8692     -0.00000

 k-point    13 :       0.4615    0.0769    0.0000
  band No.  band energies     occupation 
      1       2.0235      2.00000
      2       2.5991      2.00000
      3       4.2040      2.00000
      4       4.2173      2.00000
      5       4.4638      2.00000
      6       4.8612      2.00000
      7       5.2148      2.00000
      8       5.2614      2.00000
      9       5.8792      2.00000
     10       5.9819      2.00000
     11       7.2715      2.00000
     12       7.3303      2.00000
     13       8.3444      2.00000
     14       8.4950      2.00000
     15       8.7841      2.00000
     16       8.8125      2.00000
     17       8.9291      2.00000
     18       9.0325      2.00000
     19      10.2266      2.01596
     20      10.5154     -0.01844
     21      11.8661     -0.00000
     22      11.8679     -0.00000

 k-point    14 :       0.1538    0.1538    0.0000
  band No.  band energies     occupation 
      1      -0.0316      2.00000
      2       2.9583      2.00000
      3       2.9583      2.00000
      4       2.9942      2.00000
      5       3.5205      2.00000
      6       3.5205      2.00000
      7       3.6600      2.00000
      8       6.2346      2.00000
      9       6.8900      2.00000
     10       6.9441      2.00000
     11       8.9516      2.00000
     12       8.9874      2.00000
     13       8.9874      2.00000
     14       9.0614      2.00000
     15       9.3927      2.00000
     16      10.5598     -0.06785
     17      10.8519     -0.00000
     18      10.8526     -0.00000
     19      11.4610     -0.00000
     20      11.4610     -0.00000
     21      11.6749     -0.00000
     22      13.3796      0.00000

 k-point    15 :       0.2308    0.1538    0.0000
  band No.  band energies     occupation 
      1       0.3728      2.00000
      2       3.1042      2.00000
      3       3.2330      2.00000
      4       3.2843      2.00000
      5       3.6971      2.00000
      6       3.8066      2.00000
      7       3.9823      2.00000
      8       6.0081      2.00000
      9       7.0885      2.00000
     10       7.0924      2.00000
     11       8.0098      2.00000
     12       8.2681      2.00000
     13       8.3290      2.00000
     14       8.7126      2.00000
     15       9.5353      2.00000
     16      10.1302      2.00023
     17      10.4067      1.32909
     18      10.6052     -0.02992
     19      10.8855     -0.00000
     20      11.4591     -0.00000
     21      11.5510     -0.00000
     22      12.5583     -0.00000

 k-point    16 :       0.3077    0.1538    0.0000
  band No.  band energies     occupation 
      1       0.9109      2.00000
      2       3.2086      2.00000
      3       3.5647      2.00000
      4       3.6924      2.00000
      5       3.9372      2.00000
      6       4.2018      2.00000
      7       4.3740      2.00000
      8       5.6902      2.00000
      9       7.1036      2.00000
     10       7.2258      2.00000
     11       7.4137      2.00000
     12       7.5247      2.00000
     13       7.5581      2.00000
     14       8.4443      2.00000
     15       9.6031      2.00000
     16       9.7810      2.00000
     17       9.8605      2.00000
     18      10.1766      2.00232
     19      10.2319      2.01893
     20      11.4565     -0.00000
     21      11.4909     -0.00000
     22      11.8654     -0.00000

 k-point    17 :       0.3846    0.1538    0.0000
  band No.  band energies     occupation 
      1       1.5460      2.00000
      2       3.1416      2.00000
      3       3.9635      2.00000
      4       4.1089      2.00000
      5       4.2329      2.00000
      6       4.7005      2.00000
      7       4.7717      2.00000
      8       5.3245      2.00000
      9       6.2915      2.00000
     10       6.7264      2.00000
     11       7.0471      2.00000
     12       7.2073      2.00000
     13       7.8353      2.00000
     14       8.3827      2.00000
     15       9.1077      2.00000
     16       9.3131      2.00000
     17       9.5649      2.00000
     18       9.6382      2.00000
     19      10.0933      2.00003
     20      11.3182     -0.00000
     21      11.4538     -0.00000
     22      11.4643     -0.00000

 k-point    18 :       0.4615    0.1538    0.0000
  band No.  band energies     occupation 
      1       2.2118      2.00000
      2       2.7930      2.00000
      3       4.3254      2.00000
      4       4.3893      2.00000
      5       4.5734      2.00000
      6       4.9437      2.00000
      7       5.1374      2.00000
      8       5.2952      2.00000
      9       5.6137      2.00000
     10       5.9755      2.00000
     11       6.8810      2.00000
     12       7.0085      2.00000
     13       8.3441      2.00000
     14       8.6445      2.00000
     15       8.8298      2.00000
     16       8.9136      2.00000
     17       8.9266      2.00000
     18       9.0979      2.00000
     19      10.4557      0.53004
     20      10.8611     -0.00000
     21      11.4523     -0.00000
     22      11.4543     -0.00000

 k-point    19 :       0.2308    0.2308    0.0000
  band No.  band energies     occupation 
      1       0.7539      2.00000
      2       3.4060      2.00000
      3       3.4425      2.00000
      4       3.4425      2.00000
      5       3.9665      2.00000
      6       3.9665      2.00000
      7       4.3030      2.00000
      8       5.8896      2.00000
      9       7.1225      2.00000
     10       7.2226      2.00000
     11       7.3964      2.00000
     12       7.3964      2.00000
     13       7.8568      2.00000
     14       8.6002      2.00000
     15       9.6877      2.00000
     16       9.8173      2.00000
     17      10.2422      2.02561
     18      10.2422      2.02561
     19      10.8821     -0.00000
     20      10.8821     -0.00000
     21      11.2681     -0.00000
     22      13.4928      0.00000

 k-point    20 :       0.3077    0.2308    0.0000
  band No.  band energies     occupation 
      1       1.2619      2.00000
      2       3.5548      2.00000
      3       3.6749      2.00000
      4       3.8734      2.00000
      5       4.1826      2.00000
      6       4.3366      2.00000
      7       4.6604      2.00000
      8       5.6715      2.00000
      9       6.5810      2.00000
     10       6.8285      2.00000
     11       7.1256      2.00000
     12       7.2590      2.00000
     13       7.4865      2.00000
     14       8.4183      2.00000
     15       9.4067      2.00000
     16       9.7845      2.00000
     17       9.8927      2.00000
     18      10.0066      2.00000
     19      10.2290      2.01726
     20      10.8794     -0.00000
     21      11.0800     -0.00000
     22      12.6890     -0.00000

 k-point    21 :       0.3846    0.2308    0.0000
  band No.  band energies     occupation 
      1       1.8648      2.00000
      2       3.4730      2.00000
      3       4.0376      2.00000
      4       4.3325      2.00000
      5       4.4465      2.00000
      6       4.7997      2.00000
      7       4.9630      2.00000
      8       5.3846      2.00000
      9       5.8501      2.00000
     10       6.4876      2.00000
     11       6.6060      2.00000
     12       6.9952      2.00000
     13       7.8733      2.00000
     14       8.3768      2.00000
     15       9.0101      2.00000
     16       9.3070      2.00000
     17       9.4293      2.00000
     18       9.5649      2.00000
     19      10.4259      1.01116
     20      10.8802     -0.00000
     21      10.9719     -0.00000
     22      12.0167     -0.00000

 k-point    22 :       0.4615    0.2308    0.0000
  band No.  band energies     occupation 
      1       2.5081      2.00000
      2       3.0941      2.00000
      3       4.4645      2.00000
      4       4.6636      2.00000
      5       4.7466      2.00000
      6       5.0665      2.00000
      7       5.0986      2.00000
      8       5.2682      2.00000
      9       5.3446      2.00000
     10       5.9550      2.00000
     11       6.4874      2.00000
     12       6.7252      2.00000
     13       8.3619      2.00000
     14       8.5794      2.00000
     15       8.8100      2.00000
     16       8.9310      2.00000
     17       8.9330      2.00000
     18       8.9598      2.00000
     19      10.8895     -0.00000
     20      10.9066     -0.00000
     21      10.9156     -0.00000
     22      11.4341     -0.00000

 k-point    23 :       0.3077    0.3077    0.0000
  band No.  band energies     occupation 
      1       1.7286      2.00000
      2       3.8653      2.00000
      3       4.0015      2.00000
      4       4.0015      2.00000
      5       4.5164      2.00000
      6       4.5164      2.00000
      7       4.9662      2.00000
      8       5.5845      2.00000
      9       6.1388      2.00000
     10       6.1388      2.00000
     11       6.8804      2.00000
     12       7.0260      2.00000
     13       7.6700      2.00000
     14       8.2751      2.00000
     15       9.1135      2.00000
     16       9.5140      2.00000
     17       9.5140      2.00000
     18      10.2308      2.01827
     19      10.2308      2.01827
     20      10.4153      1.19043
     21      10.7405     -0.00008
     22      13.4781      0.00000

 k-point    24 :       0.3846    0.3077    0.0000
  band No.  band energies     occupation 
      1       2.2836      2.00000
      2       3.8869      2.00000
      3       4.1424      2.00000
      4       4.4944      2.00000
      5       4.7314      2.00000
      6       4.9274      2.00000
      7       5.1958      2.00000
      8       5.4222      2.00000
      9       5.5183      2.00000
     10       5.9827      2.00000
     11       6.4149      2.00000
     12       6.8382      2.00000
     13       7.9864      2.00000
     14       8.2087      2.00000
     15       8.8072      2.00000
     16       9.1087      2.00000
     17       9.1093      2.00000
     18       9.5775      2.00000
     19      10.2447      2.02743
     20      10.5050      0.02834
     21      10.9310     -0.00000
     22      12.7516     -0.00000

 k-point    25 :       0.4615    0.3077    0.0000
  band No.  band energies     occupation 
      1       2.8849      2.00000
      2       3.4628      2.00000
      3       4.5069      2.00000
      4       4.8876      2.00000
      5       4.9679      2.00000
      6       5.0308      2.00000
      7       5.2067      2.00000
      8       5.2165      2.00000
      9       5.3989      2.00000
     10       5.9063      2.00000
     11       6.1705      2.00000
     12       6.5175      2.00000
     13       8.3554      2.00000
     14       8.4256      2.00000
     15       8.6571      2.00000
     16       8.6859      2.00000
     17       8.7788      2.00000
     18       8.9649      2.00000
     19      10.2823      2.06024
     20      10.3611      1.88616
     21      11.5013     -0.00000
     22      12.1055     -0.00000

 k-point    26 :       0.3846    0.3846    0.0000
  band No.  band energies     occupation 
      1       2.7747      2.00000
      2       4.2832      2.00000
      3       4.2979      2.00000
      4       4.2979      2.00000
      5       5.0713      2.00000
      6       5.0713      2.00000
      7       5.3954      2.00000
      8       5.4082      2.00000
      9       5.5958      2.00000
     10       5.5958      2.00000
     11       6.1466      2.00000
     12       6.6592      2.00000
     13       8.0621      2.00000
     14       8.2131      2.00000
     15       8.5505      2.00000
     16       8.7592      2.00000
     17       8.7592      2.00000
     18       9.6172      2.00000
     19       9.6172      2.00000
     20      10.1298      2.00022
     21      11.5230     -0.00000
     22      13.4278      0.00000

 k-point    27 :       0.4615    0.3846    0.0000
  band No.  band energies     occupation 
      1       3.3046      2.00000
      2       3.8343      2.00000
      3       4.4438      2.00000
      4       4.5167      2.00000
      5       5.2143      2.00000
      6       5.3343      2.00000
      7       5.4335      2.00000
      8       5.4422      2.00000
      9       5.4622      2.00000
     10       5.8126      2.00000
     11       5.9616      2.00000
     12       6.3596      2.00000
     13       8.1132      2.00000
     14       8.3811      2.00000
     15       8.3978      2.00000
     16       8.4810      2.00000
     17       8.5700      2.00000
     18       9.0468      2.00000
     19       9.7049      2.00000
     20       9.8670      2.00000
     21      12.1458     -0.00000
     22      12.7768     -0.00000

 k-point    28 :       0.4615    0.4615    0.0000
  band No.  band energies     occupation 
      1       3.7284      2.00000
      2       4.1325      2.00000
      3       4.1325      2.00000
      4       4.3253      2.00000
      5       5.4217      2.00000
      6       5.4557      2.00000
      7       5.4557      2.00000
      8       5.6617      2.00000
      9       5.6936      2.00000
     10       5.8371      2.00000
     11       5.8371      2.00000
     12       6.1588      2.00000
     13       8.0196      2.00000
     14       8.1707      2.00000
     15       8.1707      2.00000
     16       8.1798      2.00000
     17       8.8264      2.00000
     18       9.2086      2.00000
     19       9.2086      2.00000
     20       9.4779      2.00000
     21      12.7855     -0.00000
     22      13.3938      0.00000


--------------------------------------------------------------------------------------------------------


 soft charge-density along one line, spin component           1
         0         1         2         3         4         5         6         7         8         9
 total charge-density along one line
 
 pseudopotential strength for first ion, spin component:           1
 -4.358   0.000   0.000   0.000  -0.000  -4.632   0.000   0.000
  0.000  -4.358   0.000  -0.000  -0.000   0.000  -4.632   0.000
  0.000   0.000  -4.315   0.000   0.000   0.000   0.000  -4.590
  0.000  -0.000   0.000  -4.358   0.000   0.000  -0.000   0.000
 -0.000  -0.000   0.000   0.000  -4.315  -0.000  -0.000   0.000
 -4.632   0.000   0.000   0.000  -0.000  -4.892   0.000   0.000
  0.000  -4.632   0.000  -0.000  -0.000   0.000  -4.892   0.000
  0.000   0.000  -4.590   0.000   0.000   0.000   0.000  -4.850
  0.000  -0.000   0.000  -4.632   0.000   0.000  -0.000   0.000
 -0.000  -0.000   0.000   0.000  -4.590  -0.000  -0.000   0.000
  0.000  -0.000   0.000  -0.000   0.000   0.000  -0.000   0.000
  0.000  -0.000   0.000  -0.000   0.000   0.000  -0.000   0.000
  0.000   0.000  -0.000  -0.000  -0.000   0.000   0.000  -0.000
 -0.000   0.000   0.000   0.000   0.000  -0.000   0.000   0.000
  0.000  -0.000  -0.000   0.000   0.000   0.000  -0.000  -0.000
  0.000   0.000  -0.000  -0.000  -0.000   0.000   0.000  -0.000
 -0.000   0.000   0.000   0.000   0.000  -0.000   0.000   0.000
  0.000  -0.000  -0.000   0.000   0.000   0.000  -0.000  -0.000
 total augmentation occupancy for first ion, spin component:           1
  3.362   0.000   0.000  -0.000  -0.000  -3.085   0.000   0.000  -0.000  -0.000   0.000   0.000   0.000  -0.000  -0.000   0.000
  0.000   3.362   0.000  -0.000   0.000  -0.000  -3.085  -0.000   0.000   0.000   0.000   0.000  -0.000  -0.000   0.000   0.000
  0.000   0.000   6.329  -0.000   0.000   0.000   0.000  -5.097   0.000   0.000   0.000  -0.000   0.000  -0.000  -0.000   0.000
 -0.000  -0.000  -0.000   3.362   0.000  -0.000   0.000  -0.000  -3.085  -0.000  -0.000  -0.000   0.000   0.000   0.000   0.000
 -0.000   0.000   0.000   0.000   6.329  -0.000   0.000  -0.000   0.000  -5.097   0.000  -0.000   0.000   0.000  -0.000   0.000
 -3.085  -0.000   0.000  -0.000  -0.000   4.247   0.000  -0.000   0.000   0.000  -0.000   0.000  -0.000   0.000  -0.000  -0.000
 -0.000  -3.085   0.000  -0.000  -0.000  -0.000   4.247   0.000   0.000   0.000  -0.000   0.000   0.000   0.000   0.000  -0.000
  0.000  -0.000  -5.097  -0.000   0.000  -0.000   0.000   5.517  -0.000  -0.000   0.000   0.000  -0.000   0.000   0.000  -0.000
 -0.000  -0.000   0.000  -3.085   0.000  -0.000   0.000  -0.000   4.247  -0.000  -0.000   0.000  -0.000   0.000  -0.000   0.000
 -0.000   0.000   0.000  -0.000  -5.097   0.000   0.000  -0.000   0.000   5.517  -0.000  -0.000   0.000  -0.000   0.000   0.000
  0.000   0.000   0.000  -0.000   0.000  -0.000  -0.000   0.000   0.000  -0.000   2.892  -0.629   0.000  -0.000  -0.000   0.000
  0.000   0.000  -0.000  -0.000  -0.000   0.000  -0.000  -0.000   0.000   0.000  -0.629   0.159   0.000   0.000  -0.000   0.000
  0.000  -0.000   0.000  -0.000   0.000  -0.000   0.000  -0.000  -0.000  -0.000   0.000   0.000   0.342  -0.000  -0.000  -0.017
  0.000   0.000   0.000   0.000   0.000   0.000   0.000   0.000  -0.000   0.000  -0.000  -0.000  -0.000   0.342   0.000   0.000
 -0.000   0.000  -0.000  -0.000   0.000  -0.000  -0.000   0.000  -0.000  -0.000   0.000  -0.000  -0.000   0.000   0.342  -0.000
  0.000   0.000   0.000   0.000  -0.000  -0.000   0.000   0.000   0.000   0.000   0.000   0.000  -0.017   0.000  -0.000   0.001
  0.000   0.000   0.000   0.000   0.000   0.000   0.000  -0.000  -0.000   0.000   0.000   0.000  -0.000  -0.017   0.000  -0.000
 -0.000  -0.000   0.000  -0.000  -0.000   0.000  -0.000  -0.000  -0.000   0.000   0.000  -0.000   0.000   0.000  -0.017   0.000


------------------------ aborting loop because EDIFF is reached ----------------------------------------


 


 total charge     
 
# of ion     s       p       d       tot
----------------------------------------
  1        0.680   0.667   7.071   8.417
  2        0.680   0.667   7.071   8.417
  3        0.680   0.667   7.071   8.417
  4        0.680   0.667   7.071   8.417
------------------------------------------------
tot        2.718   2.666  28.284  33.669
 
    CHARGE:  cpu time    0.10: real time    0.10
    FORLOC:  cpu time    0.00: real time    0.00
    FORNL :  cpu time    0.36: real time    0.36
    STRESS:  cpu time    1.09: real time    1.10
    FORCOR:  cpu time    0.02: real time    0.02
    FORHAR:  cpu time    0.01: real time    0.01
    MIXING:  cpu time    0.00: real time    0.00
    OFIELD:  cpu time    0.00: real time    0.00

  DFT-D2 method for vdW energy calculation
  -------------------------------------------------------------------

  Parameters of vdW forcefield:
         C6(Jnm^6/mol)     R0(A)
   -----------------------------
   Ir       6.163          1.698

  IVDW =   1
  VDW_RADIUS =    40.000 A
  VDW_S6 =     0.750
  VDW_SR =     1.000
  VDW_D =    20.000
  LVDW_EWALD = F

  Number of pair interactions contributing to vdW energy:   47592
  Edisp (eV):   -0.62576
    FORVDW:  cpu time    0.01: real time    0.01

  FORCE on cell =-STRESS in cart. coord.  units (eV):
  Direction    XX          YY          ZZ          XY          YZ          ZX
  --------------------------------------------------------------------------------------
  Alpha Z   322.44667   322.44667   322.44667
  Ewald    -928.66310  -928.66310  -928.66310    -0.00000     0.00000    -0.00000
  Hartree    41.02114    41.02114    41.02114    -0.00000    -0.00000    -0.00000
  E(xc)    -166.19236  -166.19236  -166.19236    -0.00000     0.00000     0.00000
  Local     139.95586   139.95586   139.95586    -0.00000     0.00000    -0.00000
  n-local   -16.59413   -47.03726   -37.77148     8.29584     0.00012     0.00007
  augment   156.41709   156.41709   156.41709    -0.00000    -0.00000     0.00000
  Kinetic   502.59425   463.36006   454.47412     6.87944    -0.00003    -0.00006
  Fock        0.00000     0.00000     0.00000     0.00000     0.00000     0.00000
  vdW        -0.89711    -0.89711    -0.89711     0.00000     0.00000    -0.00000
  -------------------------------------------------------------------------------------
  Total       3.76337     3.76337     3.76337     0.00000    -0.00000     0.00000
  in kB     106.56961   106.56961   106.56961     0.00000    -0.00000     0.00000
  external pressure =      106.57 kB  Pullay stress =        0.00 kB


 VOLUME and BASIS-vectors are now :
 -----------------------------------------------------------------------------
  energy-cutoff  :      700.00
  volume of cell :       56.58
      direct lattice vectors                 reciprocal lattice vectors
     3.839000000  0.000000000  0.000000000     0.260484501  0.000000000  0.000000000
     0.000000000  3.839000000  0.000000000     0.000000000  0.260484501  0.000000000
     0.000000000  0.000000000  3.839000000     0.000000000  0.000000000  0.260484501

  length of vectors
     3.839000000  3.839000000  3.839000000     0.260484501  0.260484501  0.260484501


 FORCES acting on ions
    electron-ion (+dipol)            ewald-force                    non-local-force                 convergence-correction
 -----------------------------------------------------------------------------------------------
   -.610E-14 -.977E-14 -.351E-13   -.707E-14 -.101E-13 -.937E-14   0.000E+00 0.132E-22 -.424E-21   -.163E-13 0.536E-14 0.172E-13
   -.555E-14 0.984E-13 0.750E-13   -.773E-14 0.689E-14 0.359E-14   -.132E-22 0.212E-21 0.000E+00   -.160E-13 -.946E-14 -.237E-13
   0.106E-12 -.877E-14 0.165E-11   0.705E-14 -.876E-14 0.373E-14   0.397E-22 0.265E-21 0.000E+00   0.113E-13 0.587E-14 -.285E-13
   0.106E-12 0.825E-12 0.571E-12   0.640E-14 0.821E-14 0.333E-14   0.529E-22 0.529E-22 0.000E+00   0.101E-13 -.134E-13 0.180E-13
 -----------------------------------------------------------------------------------------------
   0.201E-12 0.905E-12 0.226E-11   -.134E-14 -.374E-14 0.128E-14   0.794E-22 0.543E-21 -.424E-21   -.108E-13 -.117E-13 -.170E-13
 
 
 POSITION                                       TOTAL-FORCE (eV/Angst)
 -----------------------------------------------------------------------------------
      0.00000      0.00000      0.00000        -0.000000      0.000000      0.000000
      0.00000      1.91950      1.91950         0.000000      0.000000     -0.000000
      1.91950      0.00000      1.91950        -0.000000     -0.000000     -0.000000
      1.91950      1.91950      0.00000         0.000000     -0.000000      0.000000
 -----------------------------------------------------------------------------------
    total drift:                                0.000000      0.000000      0.000000


--------------------------------------------------------------------------------------------------------



  FREE ENERGIE OF THE ION-ELECTRON SYSTEM (eV)
  ---------------------------------------------------
  free  energy   TOTEN  =       -35.54479632 eV

  energy  without entropy=      -35.54264316  energy(sigma->0) =      -35.54407860
 


--------------------------------------------------------------------------------------------------------


    POTLOK:  cpu time    0.03: real time    0.03


--------------------------------------------------------------------------------------------------------




--------------------------------------------------------------------------------------------------------


 writing wavefunctions
     LOOP+:  cpu time   12.94: real time   14.93
    4ORBIT:  cpu time    0.00: real time    0.00
 


 total charge     
 
# of ion     s       p       d       tot
----------------------------------------
  1        0.680   0.667   7.071   8.417
  2        0.680   0.667   7.071   8.417
  3        0.680   0.667   7.071   8.417
  4        0.680   0.667   7.071   8.417
------------------------------------------------
tot        2.718   2.666  28.284  33.669
 

 total amount of memory used by VASP on root node    34640. kBytes
========================================================================

   base      :      30000. kBytes
   nonlr-proj:        988. kBytes
   fftplans  :        658. kBytes
   grid      :        929. kBytes
   one-center:         15. kBytes
   wavefun   :       2050. kBytes
 
  
  
 General timing and accounting informations for this job:
 ========================================================
  
                  Total CPU time used (sec):       14.951
                            User time (sec):       14.440
                          System time (sec):        0.511
                         Elapsed time (sec):       19.871
  
                   Maximum memory used (kb):       47796.
                   Average memory used (kb):           0.
  
                          Minor page faults:        24895
                          Major page faults:            6
                 Voluntary context switches:         1151
