 vasp.5.3.5 31Mar14 (build Nov 06 2015 22:54:15) complex                        
  
 executed on             LinuxIFC date 2017.12.01  14:20:03
 running on   24 total cores
 distrk:  each k-point on   24 cores,    1 groups
 distr:  one band on NCORES_PER_BAND=  24 cores,    1 groups


--------------------------------------------------------------------------------------------------------


 INCAR:
 POTCAR:    PAW_PBE C 08Apr2002                   

 ----------------------------------------------------------------------------- 
|                                                                             |
|           W    W    AA    RRRRR   N    N  II  N    N   GGGG   !!!           |
|           W    W   A  A   R    R  NN   N  II  NN   N  G    G  !!!           |
|           W    W  A    A  R    R  N N  N  II  N N  N  G       !!!           |
|           W WW W  AAAAAA  RRRRR   N  N N  II  N  N N  G  GGG   !            |
|           WW  WW  A    A  R   R   N   NN  II  N   NN  G    G                |
|           W    W  A    A  R    R  N    N  II  N    N   GGGG   !!!           |
|                                                                             |
|      For optimal performance we recommend to set                            |
|        NCORE= 4 - approx SQRT( number of cores)                             |
|      NCORE specifies how many cores store one orbital (NPAR=cpu/NCORE).     |
|      This setting can  greatly improve the performance of VASP for DFT.     |
|      The default, NPAR=number of cores might be grossly inefficient         |
|      on modern multi-core architectures or massively parallel machines.     |
|      Do your own testing !!!!                                               |
|      Unfortunately you need to use the default for GW and RPA calculations. |
|      (for HF NCORE is supported but not extensively tested yet)             |
|                                                                             |
 ----------------------------------------------------------------------------- 

 POTCAR:    PAW_PBE C 08Apr2002                   
   VRHFIN =C: s2p2                                                              
   LEXCH  = PE                                                                  
   EATOM  =   147.1560 eV,   10.8157 Ry                                         
                                                                                
   TITEL  = PAW_PBE C 08Apr2002                                                 
   LULTRA =        F    use ultrasoft PP ?                                      
   IUNSCR =        1    unscreen: 0-lin 1-nonlin 2-no                           
   RPACOR =    1.200    partial core radius                                     
   POMASS =   12.011; ZVAL   =    4.000    mass and valenz                      
   RCORE  =    1.500    outmost cutoff radius                                   
   RWIGS  =    1.630; RWIGS  =    0.863    wigner-seitz radius (au A)           
   ENMAX  =  400.000; ENMIN  =  300.000 eV                                      
   ICORE  =        2    local potential                                         
   LCOR   =        T    correct aug charges                                     
   LPAW   =        T    paw PP                                                  
   EAUG   =  644.873                                                            
   DEXC   =    0.000                                                            
   RMAX   =    1.529    core radius for proj-oper                               
   RAUG   =    1.300    factor for augmentation sphere                          
   RDEP   =    1.501    radius for radial grids                                 
   RDEPT  =    1.300    core radius for aug-charge                              
                                                                                
   Atomic configuration                                                         
    4 entries                                                                   
     n  l   j            E        occ.                                          
     1  0  0.50      -273.3789   2.0000                                         
     2  0  0.50       -13.7508   2.0000                                         
     2  1  0.50        -5.2854   2.0000                                         
     3  2  1.50        -5.4423   0.0000                                         
   Description                                                                  
     l       E           TYP  RCUT    TYP  RCUT                                 
     0    -13.7508458     23  1.200                                             
     0     -8.2022199     23  1.200                                             
     1     -5.2854383     23  1.500                                             
     1     34.0145650     23  1.500                                             
     2     -5.4423304      7  1.500                                             
  local pseudopotential read in
  partial core-charges read in
  partial kinetic energy density read in
  atomic valenz-charges read in
  non local Contribution for L=           0  read in
    real space projection operators read in
  non local Contribution for L=           0  read in
    real space projection operators read in
  non local Contribution for L=           1  read in
    real space projection operators read in
  non local Contribution for L=           1  read in
    real space projection operators read in
    PAW grid and wavefunctions read in
 
   number of l-projection  operators is LMAX  =           4
   number of lm-projection operators is LMMAX =           8
 
 Optimization of the real space projectors (new method)

 maximal supplied QI-value         = 25.13
 optimisation between [QCUT,QGAM] = [ 10.05, 20.36] = [ 28.30,116.06] Ry 
 Optimized for a Real-space Cutoff    1.51 Angstroem

   l    n(q)    QCUT    max X(q) W(low)/X(q) W(high)/X(q)  e(spline) 
   0      9    10.053   115.676    0.19E-03    0.21E-03    0.38E-06
   0      9    10.053    87.132    0.19E-03    0.21E-03    0.38E-06
   1      9    10.053     4.429    0.87E-04    0.11E-03    0.39E-06
   1      9    10.053     2.733    0.59E-04    0.62E-04    0.43E-06
  PAW_PBE C 08Apr2002                   :
 energy of atom  1       EATOM= -147.1560
 kinetic energy error for atom=    0.0288 (will be added to EATOM!!)
 
 
 POSCAR: 3D\Atomistic                            
  positions in direct lattice
  velocities in cartesian coordinates
 exchange correlation table for  LEXCH =        8
   RHO(1)=    0.500       N(1)  =     2000
   RHO(2)=  100.500       N(2)  =     4000
 


--------------------------------------------------------------------------------------------------------


 ion  position               nearest neighbor table
   1  0.071  0.071  0.071-   6 1.42  16 1.50  24 1.50  26 1.50
   2  0.929  0.429  0.571-   5 1.42  13 1.50  15 1.50  30 1.50
   3  0.429  0.571  0.929-   7 1.42  14 1.50  23 1.50  31 1.50
   4  0.571  0.929  0.429-   8 1.42  12 1.50  17 1.50  25 1.50
   5  0.821  0.321  0.679-   2 1.42  22 1.50  27 1.50  11 1.50
   6  0.179  0.179  0.179-   1 1.42  20 1.50  21 1.50  29 1.50
   7  0.321  0.679  0.821-   3 1.42  19 1.50  28 1.50   9 1.50
   8  0.679  0.821  0.321-   4 1.42  18 1.50  32 1.50  10 1.50
   9  0.321  0.821  0.679-  12 1.42  19 1.50  28 1.50   7 1.50
  10  0.821  0.679  0.321-  13 1.42  18 1.50  32 1.50   8 1.50
  11  0.679  0.321  0.821-  14 1.42  22 1.50  27 1.50   5 1.50
  12  0.429  0.929  0.571-   9 1.42   4 1.50  17 1.50  25 1.50
  13  0.929  0.571  0.429-  10 1.42   2 1.50  15 1.50  30 1.50
  14  0.571  0.429  0.929-  11 1.42   3 1.50  23 1.50  31 1.50
  15  0.071  0.571  0.571-  19 1.42  13 1.50   2 1.50  30 1.50
  16  0.929  0.929  0.071-  18 1.42   1 1.50  24 1.50  26 1.50
  17  0.429  0.071  0.429-  20 1.42  12 1.50   4 1.50  25 1.50
  18  0.821  0.821  0.179-  16 1.42  10 1.50   8 1.50  32 1.50
  19  0.179  0.679  0.679-  15 1.42   9 1.50   7 1.50  28 1.50
  20  0.321  0.179  0.321-  17 1.42   6 1.50  21 1.50  29 1.50
  21  0.321  0.321  0.179-  23 1.42  20 1.50   6 1.50  29 1.50
  22  0.821  0.179  0.821-  24 1.42  11 1.50   5 1.50  27 1.50
  23  0.429  0.429  0.071-  21 1.42  14 1.50   3 1.50  31 1.50
  24  0.929  0.071  0.929-  22 1.42  16 1.50   1 1.50  26 1.50
  25  0.571  0.071  0.571-  27 1.42  12 1.50  17 1.50   4 1.50
  26  0.071  0.929  0.929-  28 1.42  16 1.50  24 1.50   1 1.50
  27  0.679  0.179  0.679-  25 1.42  11 1.50   5 1.50  22 1.50
  28  0.179  0.821  0.821-  26 1.42   9 1.50   7 1.50  19 1.50
  29  0.179  0.321  0.321-  30 1.42  20 1.50  21 1.50   6 1.50
  30  0.071  0.429  0.429-  29 1.42  13 1.50  15 1.50   2 1.50
  31  0.571  0.571  0.071-  32 1.42  14 1.50  23 1.50   3 1.50
  32  0.679  0.679  0.179-  31 1.42  10 1.50   8 1.50  18 1.50
 
  LATTYP: Found a simple cubic cell.
 ALAT       =     7.5199999809
  
  Lattice vectors:
  
 A1 = (   7.5199999809,   0.0000000000,   0.0000000000)
 A2 = (   0.0000000000,   7.5199999809,   0.0000000000)
 A3 = (   0.0000000000,   0.0000000000,   7.5199999809)


Analysis of symmetry for initial positions (statically):
=====================================================================
 Subroutine PRICEL returns following result:
 
  LATTYP: Found a face centered cubic cell.
 ALAT       =     7.5199995297
  
  Lattice vectors:
  
 A1 = (   3.7599997649,   3.7599997649,   0.0000004512)
 A2 = (   3.7599997649,   0.0000000000,  -3.7599997649)
 A3 = (   0.0000000000,   3.7599997649,  -3.7599997649)
 
   4 primitive cells build up your supercell.
 

 Routine SETGRP: Setting up the symmetry group for a 
 simple cubic supercell.


 Subroutine GETGRP returns: Found 48 space group operations
 (whereof 24 operations were pure point group operations)
 out of a pool of 48 trial point group operations.


The static configuration has the point symmetry T_d .
 The point group associated with its full space group is O_h .


Analysis of symmetry for dynamics (positions and initial velocities):
=====================================================================
 Subroutine PRICEL returns following result:
 
  LATTYP: Found a face centered cubic cell.
 ALAT       =     7.5199995297
  
  Lattice vectors:
  
 A1 = (   3.7599997649,   3.7599997649,   0.0000004512)
 A2 = (   3.7599997649,   0.0000000000,  -3.7599997649)
 A3 = (   0.0000000000,   3.7599997649,  -3.7599997649)
 
   4 primitive cells build up your supercell.
 

 Routine SETGRP: Setting up the symmetry group for a 
 simple cubic supercell.


 Subroutine GETGRP returns: Found 48 space group operations
 (whereof 24 operations were pure point group operations)
 out of a pool of 48 trial point group operations.


The dynamic configuration has the point symmetry T_d .
 The point group associated with its full space group is O_h .
 
 
 KPOINTS: Automatic generation                    

Automatic generation of k-mesh.
Space group operators:
 irot       det(A)        alpha          n_x          n_y          n_z        tau_x        tau_y        tau_z
    1     1.000000     0.000000     1.000000     0.000000     0.000000     0.000000     0.000000     0.000000
    2     1.000000   120.000000    -0.577350    -0.577350    -0.577350     0.000000     0.000000     0.000000
    3     1.000000   120.000000     0.577350     0.577350     0.577350     0.000000     0.000000     0.000000
    4    -1.000000    90.000000     0.000000     0.000000    -1.000000     0.000000     0.000000     0.000000
    5    -1.000000   180.000000     0.000000     0.707107     0.707107     0.000000     0.000000     0.000000
    6    -1.000000    90.000000     0.000000     1.000000     0.000000     0.000000     0.000000     0.000000
    7     1.000000   180.000000     0.000000     0.000000     1.000000     0.000000     0.000000     0.000000
    8     1.000000   120.000000    -0.577350     0.577350     0.577350     0.000000     0.000000     0.000000
    9     1.000000   120.000000    -0.577350     0.577350    -0.577350     0.000000     0.000000     0.000000
   10    -1.000000    90.000000     0.000000     0.000000     1.000000     0.000000     0.000000     0.000000
   11    -1.000000    90.000000    -1.000000     0.000000     0.000000     0.000000     0.000000     0.000000
   12    -1.000000   180.000000     0.707107     0.000000     0.707107     0.000000     0.000000     0.000000
   13     1.000000   120.000000     0.577350    -0.577350     0.577350     0.000000     0.000000     0.000000
   14     1.000000   120.000000    -0.577350    -0.577350     0.577350     0.000000     0.000000     0.000000
   15     1.000000   180.000000     1.000000     0.000000     0.000000     0.000000     0.000000     0.000000
   16    -1.000000    90.000000     0.000000    -1.000000     0.000000     0.000000     0.000000     0.000000
   17    -1.000000   180.000000     0.707107     0.707107     0.000000     0.000000     0.000000     0.000000
   18    -1.000000    90.000000     1.000000     0.000000     0.000000     0.000000     0.000000     0.000000
   19     1.000000   120.000000     0.577350    -0.577350    -0.577350     0.000000     0.000000     0.000000
   20     1.000000   180.000000     0.000000     1.000000     0.000000     0.000000     0.000000     0.000000
   21     1.000000   120.000000     0.577350     0.577350    -0.577350     0.000000     0.000000     0.000000
   22    -1.000000   180.000000     0.000000    -0.707107     0.707107     0.000000     0.000000     0.000000
   23    -1.000000   180.000000     0.707107    -0.707107     0.000000     0.000000     0.000000     0.000000
   24    -1.000000   180.000000     0.707107     0.000000    -0.707107     0.000000     0.000000     0.000000
   25    -1.000000     0.000000     1.000000     0.000000     0.000000     0.750000     0.750000    -0.750000
   26    -1.000000   120.000000    -0.577350    -0.577350    -0.577350     0.750000     0.750000    -0.750000
   27    -1.000000   120.000000     0.577350     0.577350     0.577350     0.750000     0.750000    -0.750000
   28     1.000000    90.000000     0.000000     0.000000    -1.000000     0.750000     0.750000    -0.750000
   29     1.000000   180.000000     0.000000     0.707107     0.707107     0.750000     0.750000    -0.750000
   30     1.000000    90.000000     0.000000     1.000000     0.000000     0.750000     0.750000    -0.750000
   31    -1.000000   180.000000     0.000000     0.000000     1.000000     0.750000     0.750000    -0.750000
   32    -1.000000   120.000000    -0.577350     0.577350     0.577350     0.750000     0.750000    -0.750000
   33    -1.000000   120.000000    -0.577350     0.577350    -0.577350     0.750000     0.750000    -0.750000
   34     1.000000    90.000000     0.000000     0.000000     1.000000     0.750000     0.750000    -0.750000
   35     1.000000    90.000000    -1.000000     0.000000     0.000000     0.750000     0.750000    -0.750000
   36     1.000000   180.000000     0.707107     0.000000     0.707107     0.750000     0.750000    -0.750000
   37    -1.000000   120.000000     0.577350    -0.577350     0.577350     0.750000     0.750000    -0.750000
   38    -1.000000   120.000000    -0.577350    -0.577350     0.577350     0.750000     0.750000    -0.750000
   39    -1.000000   180.000000     1.000000     0.000000     0.000000     0.750000     0.750000    -0.750000
   40     1.000000    90.000000     0.000000    -1.000000     0.000000     0.750000     0.750000    -0.750000
   41     1.000000   180.000000     0.707107     0.707107     0.000000     0.750000     0.750000    -0.750000
   42     1.000000    90.000000     1.000000     0.000000     0.000000     0.750000     0.750000    -0.750000
   43    -1.000000   120.000000     0.577350    -0.577350    -0.577350     0.750000     0.750000    -0.750000
   44    -1.000000   180.000000     0.000000     1.000000     0.000000     0.750000     0.750000    -0.750000
   45    -1.000000   120.000000     0.577350     0.577350    -0.577350     0.750000     0.750000    -0.750000
   46     1.000000   180.000000     0.000000    -0.707107     0.707107     0.750000     0.750000    -0.750000
   47     1.000000   180.000000     0.707107    -0.707107     0.000000     0.750000     0.750000    -0.750000
   48     1.000000   180.000000     0.707107     0.000000    -0.707107     0.750000     0.750000    -0.750000
 
 Subroutine IBZKPT returns following result:
 ===========================================
 
 Found     20 irreducible k-points:
 
 Following reciprocal coordinates:
            Coordinates               Weight
  0.062500  0.062500  0.062500      8.000000
  0.187500  0.062500  0.062500     24.000000
  0.312500  0.062500  0.062500     24.000000
  0.437500  0.062500  0.062500     24.000000
  0.187500  0.187500  0.062500     24.000000
  0.312500  0.187500  0.062500     48.000000
  0.437500  0.187500  0.062500     48.000000
  0.312500  0.312500  0.062500     24.000000
  0.437500  0.312500  0.062500     48.000000
  0.437500  0.437500  0.062500     24.000000
  0.187500  0.187500  0.187500      8.000000
  0.312500  0.187500  0.187500     24.000000
  0.437500  0.187500  0.187500     24.000000
  0.312500  0.312500  0.187500     24.000000
  0.437500  0.312500  0.187500     48.000000
  0.437500  0.437500  0.187500     24.000000
  0.312500  0.312500  0.312500      8.000000
  0.437500  0.312500  0.312500     24.000000
  0.437500  0.437500  0.312500     24.000000
  0.437500  0.437500  0.437500      8.000000
 
 Following cartesian coordinates:
            Coordinates               Weight
  0.008311  0.008311  0.008311      8.000000
  0.024934  0.008311  0.008311     24.000000
  0.041556  0.008311  0.008311     24.000000
  0.058178  0.008311  0.008311     24.000000
  0.024934  0.024934  0.008311     24.000000
  0.041556  0.024934  0.008311     48.000000
  0.058178  0.024934  0.008311     48.000000
  0.041556  0.041556  0.008311     24.000000
  0.058178  0.041556  0.008311     48.000000
  0.058178  0.058178  0.008311     24.000000
  0.024934  0.024934  0.024934      8.000000
  0.041556  0.024934  0.024934     24.000000
  0.058178  0.024934  0.024934     24.000000
  0.041556  0.041556  0.024934     24.000000
  0.058178  0.041556  0.024934     48.000000
  0.058178  0.058178  0.024934     24.000000
  0.041556  0.041556  0.041556      8.000000
  0.058178  0.041556  0.041556     24.000000
  0.058178  0.058178  0.041556     24.000000
  0.058178  0.058178  0.058178      8.000000
 


--------------------------------------------------------------------------------------------------------




 Dimension of arrays:
   k-points           NKPTS =     20   k-points in BZ     NKDIM =     20   number of bands    NBANDS=     81
   number of dos      NEDOS =    301   number of ions     NIONS =     32
   non local maximal  LDIM  =      4   non local SUM 2l+1 LMDIM =      8
   total plane-waves  NPLWV = 125000
   max r-space proj   IRMAX =   4276   max aug-charges    IRDMAX=   3668
   dimension x,y,z NGX =    50 NGY =   50 NGZ =   50
   dimension x,y,z NGXF=   100 NGYF=  100 NGZF=  100
   support grid    NGXF=   100 NGYF=  100 NGZF=  100
   ions per type =              32
 NGX,Y,Z   is equivalent  to a cutoff of  11.05, 11.05, 11.05 a.u.
 NGXF,Y,Z  is equivalent  to a cutoff of  22.11, 22.11, 22.11 a.u.


 I would recommend the setting:
   dimension x,y,z NGX =    49 NGY =   49 NGZ =   49
 SYSTEM =  C                                       
 POSCAR =  3D\Atomistic                            

 Startparameter for this run:
   NWRITE =      2    write-flag & timer
   PREC   = accura    normal or accurate (medium, high low for compatibility)
   ISTART =      0    job   : 0-new  1-cont  2-samecut
   ICHARG =      2    charge: 1-file 2-atom 10-const
   ISPIN  =      1    spin polarized calculation?
   LNONCOLLINEAR =      F non collinear calculations
   LSORBIT =      F    spin-orbit coupling
   INIWAV =      1    electr: 0-lowe 1-rand  2-diag
   LASPH  =      F    aspherical Exc in radial PAW
   METAGGA=      F    non-selfconsistent MetaGGA calc.

 Electronic Relaxation 1
   ENCUT  =  400.0 eV  29.40 Ry    5.42 a.u.  12.26 12.26 12.26*2*pi/ulx,y,z
   ENINI  =  400.0     initial cutoff
   ENAUG  =  644.9 eV  augmentation charge cutoff
   NELM   =     60;   NELMIN=  2; NELMDL= -5     # of ELM steps 
   EDIFF  = 0.1E-05   stopping-criterion for ELM
   LREAL  =      T    real-space projection
   NLSPLINE    = F    spline interpolate recip. space projectors
   LCOMPAT=      F    compatible to vasp.4.4
   GGA_COMPAT  = T    GGA compatible to vasp.4.4-vasp.4.6
   LMAXPAW     = -100 max onsite density
   LMAXMIX     =    2 max onsite mixed and CHGCAR
   VOSKOWN=      0    Vosko Wilk Nusair interpolation
   ROPT   =   -0.00025
 Ionic relaxation
   EDIFFG = -.1E-01   stopping-criterion for IOM
   NSW    =    100    number of steps for IOM
   NBLOCK =      1;   KBLOCK =    100    inner block; outer block 
   IBRION =      1    ionic relax: 0-MD 1-quasi-New 2-CG
   NFREE  =      0    steps in history (QN), initial steepest desc. (CG)
   ISIF   =      3    stress and relaxation
   IWAVPR =     11    prediction:  0-non 1-charg 2-wave 3-comb
   ISYM   =      2    0-nonsym 1-usesym 2-fastsym
   LCORR  =      T    Harris-Foulkes like correction to forces

   POTIM  = 0.5000    time-step for ionic-motion
   TEIN   =    0.0    initial temperature
   TEBEG  =    0.0;   TEEND  =   0.0 temperature during run
   SMASS  =  -3.00    Nose mass-parameter (am)
   estimated Nose-frequenzy (Omega)   =  0.10E-29 period in steps =****** mass=  -0.129E-26a.u.
   SCALEE = 1.0000    scale energy and forces
   NPACO  =    256;   APACO  = 16.0  distance and # of slots for P.C.
   PSTRESS=    0.0 pullay stress

  Mass of Ions in am
   POMASS =  12.01
  Ionic Valenz
   ZVAL   =   4.00
  Atomic Wigner-Seitz radii
   RWIGS  =  -1.00
  virtual crystal weights 
   VCA    =   1.00
   NELECT =     128.0000    total number of electrons
   NUPDOWN=      -1.0000    fix difference up-down

 DOS related values:
   EMIN   =  10.00;   EMAX   =-10.00  energy-range for DOS
   EFERMI =   0.00
   ISMEAR =     0;   SIGMA  =   0.05  broadening in eV -4-tet -1-fermi 0-gaus

 Electronic relaxation 2 (details)
   IALGO  =     38    algorithm
   LDIAG  =      T    sub-space diagonalisation (order eigenvalues)
   LSUBROT=      F    optimize rotation matrix (better conditioning)
   TURBO    =      0    0=normal 1=particle mesh
   IRESTART =      0    0=no restart 2=restart with 2 vectors
   NREBOOT  =      0    no. of reboots
   NMIN     =      0    reboot dimension
   EREF     =   0.00    reference energy to select bands
   IMIX   =      4    mixing-type and parameters
     AMIX     =   0.40;   BMIX     =  1.00
     AMIX_MAG =   1.60;   BMIX_MAG =  1.00
     AMIN     =   0.10
     WC   =   100.;   INIMIX=   1;  MIXPRE=   1;  MAXMIX= -45

 Intra band minimization:
   WEIMIN = 0.0010     energy-eigenvalue tresh-hold
   EBREAK =  0.31E-08  absolut break condition
   DEPER  =   0.30     relativ break condition  

   TIME   =   0.40     timestep for ELM

  volume/ion in A,a.u.               =      13.29        89.68
  Fermi-wavevector in a.u.,A,eV,Ry     =   1.097136  2.073286 16.377422  1.203707
  Thomas-Fermi vector in A             =   2.233490
 
 Write flags
   LWAVE  =      T    write WAVECAR
   LCHARG =      T    write CHGCAR
   LVTOT  =      F    write LOCPOT, total local potential
   LVHAR  =      F    write LOCPOT, Hartree potential only
   LELF   =      F    write electronic localiz. function (ELF)
   LORBIT =      0    0 simple, 1 ext, 2 COOP (PROOUT)


 Dipole corrections
   LMONO  =      F    monopole corrections only (constant potential shift)
   LDIPOL =      F    correct potential (dipole corrections)
   IDIPOL =      0    1-x, 2-y, 3-z, 4-all directions 
   EPSILON=  1.0000000 bulk dielectric constant

 Exchange correlation treatment:
   GGA     =    --    GGA type
   LEXCH   =     8    internal setting for exchange type
   VOSKOWN=      0    Vosko Wilk Nusair interpolation
   LHFCALC =     F    Hartree Fock is set to
   LHFONE  =     F    Hartree Fock one center treatment
   AEXX    =    0.0000 exact exchange contribution

 Linear response parameters
   LEPSILON=     F    determine dielectric tensor
   LRPA    =     F    only Hartree local field effects (RPA)
   LNABLA  =     F    use nabla operator in PAW spheres
   LVEL    =     F    velocity operator in full k-point grid
   LINTERFAST=   F  fast interpolation
   KINTER  =     0    interpolate to denser k-point grid
   CSHIFT  =0.1000    complex shift for real part using Kramers Kronig
   OMEGAMAX=  -1.0    maximum frequency
   DEG_THRESHOLD= 0.2000000E-02 threshold for treating states as degnerate
   RTIME   =    0.100 relaxation time in fs

 Orbital magnetization related:
   ORBITALMAG=     F  switch on orbital magnetization
   LCHIMAG   =     F  perturbation theory with respect to B field
   DQ        =  0.001000  dq finite difference perturbation B field



--------------------------------------------------------------------------------------------------------


 quasi-Newton-method for relaxation of ions
 charge density and potential will be updated during run
 non-spin polarized calculation
 Variant of blocked Davidson
 Davidson routine will perform the subspace rotation
 perform sub-space diagonalisation
    after iterative eigenvector-optimisation
 modified Broyden-mixing scheme, WC =      100.0
 initial mixing is a Kerker type mixing with AMIX =  0.4000 and BMIX =      1.0000
 Hartree-type preconditioning will be used
 using additional bands           17
 real space projection scheme for non local part
 use partial core corrections
 calculate Harris-corrections to forces 
   (improved forces if not selfconsistent)
 use gradient corrections 
 use of overlap-Matrix (Vanderbilt PP)
 Gauss-broadening in eV      SIGMA  =   0.05


--------------------------------------------------------------------------------------------------------


  energy-cutoff  :      400.00
  volume of cell :      425.26
      direct lattice vectors                 reciprocal lattice vectors
     7.519999981  0.000000000  0.000000000     0.132978724  0.000000000  0.000000000
     0.000000000  7.519999981  0.000000000     0.000000000  0.132978724  0.000000000
     0.000000000  0.000000000  7.519999981     0.000000000  0.000000000  0.132978724

  length of vectors
     7.519999981  7.519999981  7.519999981     0.132978724  0.132978724  0.132978724


 
 k-points in units of 2pi/SCALE and weight: Automatic generation                    
   0.00831117  0.00831117  0.00831117       0.016
   0.02493351  0.00831117  0.00831117       0.047
   0.04155585  0.00831117  0.00831117       0.047
   0.05817819  0.00831117  0.00831117       0.047
   0.02493351  0.02493351  0.00831117       0.047
   0.04155585  0.02493351  0.00831117       0.094
   0.05817819  0.02493351  0.00831117       0.094
   0.04155585  0.04155585  0.00831117       0.047
   0.05817819  0.04155585  0.00831117       0.094
   0.05817819  0.05817819  0.00831117       0.047
   0.02493351  0.02493351  0.02493351       0.016
   0.04155585  0.02493351  0.02493351       0.047
   0.05817819  0.02493351  0.02493351       0.047
   0.04155585  0.04155585  0.02493351       0.047
   0.05817819  0.04155585  0.02493351       0.094
   0.05817819  0.05817819  0.02493351       0.047
   0.04155585  0.04155585  0.04155585       0.016
   0.05817819  0.04155585  0.04155585       0.047
   0.05817819  0.05817819  0.04155585       0.047
   0.05817819  0.05817819  0.05817819       0.016
 
 k-points in reciprocal lattice and weights: Automatic generation                    
   0.06250000  0.06250000  0.06250000       0.016
   0.18750000  0.06250000  0.06250000       0.047
   0.31250000  0.06250000  0.06250000       0.047
   0.43750000  0.06250000  0.06250000       0.047
   0.18750000  0.18750000  0.06250000       0.047
   0.31250000  0.18750000  0.06250000       0.094
   0.43750000  0.18750000  0.06250000       0.094
   0.31250000  0.31250000  0.06250000       0.047
   0.43750000  0.31250000  0.06250000       0.094
   0.43750000  0.43750000  0.06250000       0.047
   0.18750000  0.18750000  0.18750000       0.016
   0.31250000  0.18750000  0.18750000       0.047
   0.43750000  0.18750000  0.18750000       0.047
   0.31250000  0.31250000  0.18750000       0.047
   0.43750000  0.31250000  0.18750000       0.094
   0.43750000  0.43750000  0.18750000       0.047
   0.31250000  0.31250000  0.31250000       0.016
   0.43750000  0.31250000  0.31250000       0.047
   0.43750000  0.43750000  0.31250000       0.047
   0.43750000  0.43750000  0.43750000       0.016
 
 position of ions in fractional coordinates (direct lattice) 
   0.07058815  0.07058815  0.07058815
   0.92941182  0.42941185  0.57058818
   0.42941185  0.57058818  0.92941182
   0.57058818  0.92941182  0.42941185
   0.82058818  0.32058815  0.67941182
   0.17941185  0.17941185  0.17941185
   0.32058815  0.67941182  0.82058818
   0.67941182  0.82058818  0.32058815
   0.32058815  0.82058818  0.67941182
   0.82058818  0.67941182  0.32058815
   0.67941182  0.32058815  0.82058818
   0.42941185  0.92941182  0.57058818
   0.92941182  0.57058818  0.42941185
   0.57058818  0.42941185  0.92941182
   0.07058815  0.57058818  0.57058818
   0.92941182  0.92941182  0.07058815
   0.42941185  0.07058815  0.42941185
   0.82058818  0.82058818  0.17941185
   0.17941185  0.67941182  0.67941182
   0.32058815  0.17941185  0.32058815
   0.32058815  0.32058815  0.17941185
   0.82058818  0.17941185  0.82058818
   0.42941185  0.42941185  0.07058815
   0.92941182  0.07058815  0.92941182
   0.57058818  0.07058815  0.57058818
   0.07058815  0.92941182  0.92941182
   0.67941182  0.17941185  0.67941182
   0.17941185  0.82058818  0.82058818
   0.17941185  0.32058815  0.32058815
   0.07058815  0.42941185  0.42941185
   0.57058818  0.57058818  0.07058815
   0.67941182  0.67941182  0.17941185
 
 position of ions in cartesian coordinates  (Angst):
   0.53082287  0.53082287  0.53082287
   6.98917688  3.22917712  4.29082309
   3.22917712  4.29082309  6.98917688
   4.29082309  6.98917688  3.22917712
   6.17082308  2.41082287  5.10917689
   1.34917712  1.34917712  1.34917712
   2.41082287  5.10917689  6.17082308
   5.10917689  6.17082308  2.41082287
   2.41082287  6.17082308  5.10917689
   6.17082308  5.10917689  2.41082287
   5.10917689  2.41082287  6.17082308
   3.22917712  6.98917688  4.29082309
   6.98917688  4.29082309  3.22917712
   4.29082309  3.22917712  6.98917688
   0.53082287  4.29082309  4.29082309
   6.98917688  6.98917688  0.53082287
   3.22917712  0.53082287  3.22917712
   6.17082308  6.17082308  1.34917712
   1.34917712  5.10917689  5.10917689
   2.41082287  1.34917712  2.41082287
   2.41082287  2.41082287  1.34917712
   6.17082308  1.34917712  6.17082308
   3.22917712  3.22917712  0.53082287
   6.98917688  0.53082287  6.98917688
   4.29082309  0.53082287  4.29082309
   0.53082287  6.98917688  6.98917688
   5.10917689  1.34917712  5.10917689
   1.34917712  6.17082308  6.17082308
   1.34917712  2.41082287  2.41082287
   0.53082287  3.22917712  3.22917712
   4.29082309  4.29082309  0.53082287
   5.10917689  5.10917689  1.34917712
 


--------------------------------------------------------------------------------------------------------


 k-point  1 :   0.0625 0.0625 0.0625  plane waves:    7725
 k-point  2 :   0.1875 0.0625 0.0625  plane waves:    7739
 k-point  3 :   0.3125 0.0625 0.0625  plane waves:    7740
 k-point  4 :   0.4375 0.0625 0.0625  plane waves:    7733
 k-point  5 :   0.1875 0.1875 0.0625  plane waves:    7726
 k-point  6 :   0.3125 0.1875 0.0625  plane waves:    7712
 k-point  7 :   0.4375 0.1875 0.0625  plane waves:    7724
 k-point  8 :   0.3125 0.3125 0.0625  plane waves:    7712
 k-point  9 :   0.4375 0.3125 0.0625  plane waves:    7719
 k-point 10 :   0.4375 0.4375 0.0625  plane waves:    7719
 k-point 11 :   0.1875 0.1875 0.1875  plane waves:    7721
 k-point 12 :   0.3125 0.1875 0.1875  plane waves:    7717
 k-point 13 :   0.4375 0.1875 0.1875  plane waves:    7718
 k-point 14 :   0.3125 0.3125 0.1875  plane waves:    7725
 k-point 15 :   0.4375 0.3125 0.1875  plane waves:    7726
 k-point 16 :   0.4375 0.4375 0.1875  plane waves:    7723
 k-point 17 :   0.3125 0.3125 0.3125  plane waves:    7730
 k-point 18 :   0.4375 0.3125 0.3125  plane waves:    7723
 k-point 19 :   0.4375 0.4375 0.3125  plane waves:    7728
 k-point 20 :   0.4375 0.4375 0.4375  plane waves:    7712

 maximum and minimum number of plane-waves per node :       341      306

 maximum number of plane-waves:      7740
 maximum index in each direction: 
   IXMAX=   12   IYMAX=   12   IZMAX=   12
   IXMIN=  -12   IYMIN=  -12   IZMIN=  -12

 NGX is ok and might be reduce to  50
 NGY is ok and might be reduce to  50
 NGZ is ok and might be reduce to  50

 real space projection operators:
  total allocation   :       8174.00 KBytes
  max/ min on nodes  :        494.75        305.75


 parallel 3D FFT for wavefunctions:
    minimum data exchange during FFTs selected (reduces bandwidth)
 parallel 3D FFT for charge:
    minimum data exchange during FFTs selected (reduces bandwidth)


 total amount of memory used by VASP on root node    46497. kBytes
========================================================================

   base      :      30000. kBytes
   nonlr-proj:       2918. kBytes
   fftplans  :       1871. kBytes
   grid      :       2734. kBytes
   one-center:          6. kBytes
   wavefun   :       8968. kBytes
 
     INWAV:  cpu time    0.00: real time    0.00
 Broyden mixing: mesh for mixing (old mesh)
   NGX = 25   NGY = 25   NGZ = 25
  (NGX  =100   NGY  =100   NGZ  =100)
  gives a total of  15625 points

 initial charge density was supplied:
 charge density of overlapping atoms calculated
 number of electron     128.0000000 magnetization 
 keeping initial charge density in first step


--------------------------------------------------------------------------------------------------------


 Maximum index for non-local projection operator          574
 Maximum index for augmentation-charges          356 (set IRDMAX)


--------------------------------------------------------------------------------------------------------


 First call to EWALD:  gamma=   0.236
 Maximum number of real-space cells 3x 3x 3
 Maximum number of reciprocal cells 3x 3x 3

 FEWALD executed in parallel
    FEWALD:  cpu time    0.00: real time    0.01


----------------------------------------- Iteration    1(   1)  ---------------------------------------


    POTLOK:  cpu time    0.04: real time    0.06
    SETDIJ:  cpu time    0.01: real time    0.04
     EDDAV:  cpu time    6.91: real time   13.33
       DOS:  cpu time    0.01: real time    0.02
    --------------------------------------------
      LOOP:  cpu time    6.98: real time   13.52

 eigenvalue-minimisations  :  3240
 total energy-change (2. order) : 0.6810147E+03  (-0.5383683E+04)
 number of electron     128.0000000 magnetization 
 augmentation part      128.0000000 magnetization 

 Free energy of the ion-electron system (eV)
  ---------------------------------------------------
  alpha Z        PSCENC =       197.80471723
  Ewald energy   TEWEN  =     -1611.40102037
  -Hartree energ DENC   =     -2633.63931743
  -exchange      EXHF   =         0.00000000
  -V(xc)+E(xc)   XCENC  =       422.84404219
  PAW double counting   =      3472.70548416    -3490.92647004
  entropy T*S    EENTRO =        -0.00460937
  eigenvalues    EBANDS =      -384.43928015
  atomic energy  EATOM  =      4708.07116389
  ---------------------------------------------------
  free energy    TOTEN  =       681.01471011 eV

  energy without entropy =      681.01931948  energy(sigma->0) =      681.01701479


--------------------------------------------------------------------------------------------------------




----------------------------------------- Iteration    1(   2)  ---------------------------------------


     EDDAV:  cpu time    7.86: real time   12.93
       DOS:  cpu time    0.00: real time    0.00
    --------------------------------------------
      LOOP:  cpu time    7.88: real time   13.81

 eigenvalue-minimisations  :  4151
 total energy-change (2. order) :-0.8806071E+03  (-0.8535429E+03)
 number of electron     128.0000000 magnetization 
 augmentation part      128.0000000 magnetization 

 Free energy of the ion-electron system (eV)
  ---------------------------------------------------
  alpha Z        PSCENC =       197.80471723
  Ewald energy   TEWEN  =     -1611.40102037
  -Hartree energ DENC   =     -2633.63931743
  -exchange      EXHF   =         0.00000000
  -V(xc)+E(xc)   XCENC  =       422.84404219
  PAW double counting   =      3472.70548416    -3490.92647004
  entropy T*S    EENTRO =        -0.00000000
  eigenvalues    EBANDS =     -1265.05101750
  atomic energy  EATOM  =      4708.07116389
  ---------------------------------------------------
  free energy    TOTEN  =      -199.59241787 eV

  energy without entropy =     -199.59241787  energy(sigma->0) =     -199.59241787


--------------------------------------------------------------------------------------------------------




----------------------------------------- Iteration    1(   3)  ---------------------------------------


     EDDAV:  cpu time    6.45: real time    8.18
       DOS:  cpu time    0.00: real time    0.00
    --------------------------------------------
      LOOP:  cpu time    6.45: real time    8.21

 eigenvalue-minimisations  :  3896
 total energy-change (2. order) :-0.6972288E+02  (-0.6909819E+02)
 number of electron     128.0000000 magnetization 
 augmentation part      128.0000000 magnetization 

 Free energy of the ion-electron system (eV)
  ---------------------------------------------------
  alpha Z        PSCENC =       197.80471723
  Ewald energy   TEWEN  =     -1611.40102037
  -Hartree energ DENC   =     -2633.63931743
  -exchange      EXHF   =         0.00000000
  -V(xc)+E(xc)   XCENC  =       422.84404219
  PAW double counting   =      3472.70548416    -3490.92647004
  entropy T*S    EENTRO =        -0.00000000
  eigenvalues    EBANDS =     -1334.77390027
  atomic energy  EATOM  =      4708.07116389
  ---------------------------------------------------
  free energy    TOTEN  =      -269.31530064 eV

  energy without entropy =     -269.31530064  energy(sigma->0) =     -269.31530064


--------------------------------------------------------------------------------------------------------




----------------------------------------- Iteration    1(   4)  ---------------------------------------


     EDDAV:  cpu time    7.06: real time    8.93
       DOS:  cpu time    0.00: real time    0.00
    --------------------------------------------
      LOOP:  cpu time    7.07: real time    8.97

 eigenvalue-minimisations  :  4352
 total energy-change (2. order) :-0.2238044E+01  (-0.2225750E+01)
 number of electron     128.0000000 magnetization 
 augmentation part      128.0000000 magnetization 

 Free energy of the ion-electron system (eV)
  ---------------------------------------------------
  alpha Z        PSCENC =       197.80471723
  Ewald energy   TEWEN  =     -1611.40102037
  -Hartree energ DENC   =     -2633.63931743
  -exchange      EXHF   =         0.00000000
  -V(xc)+E(xc)   XCENC  =       422.84404219
  PAW double counting   =      3472.70548416    -3490.92647004
  entropy T*S    EENTRO =        -0.00000000
  eigenvalues    EBANDS =     -1337.01194443
  atomic energy  EATOM  =      4708.07116389
  ---------------------------------------------------
  free energy    TOTEN  =      -271.55334480 eV

  energy without entropy =     -271.55334480  energy(sigma->0) =     -271.55334480


--------------------------------------------------------------------------------------------------------




----------------------------------------- Iteration    1(   5)  ---------------------------------------


     EDDAV:  cpu time    6.84: real time    8.40
       DOS:  cpu time    0.00: real time    0.00
    CHARGE:  cpu time    0.42: real time    0.45
    MIXING:  cpu time    0.00: real time    0.01
    --------------------------------------------
      LOOP:  cpu time    7.26: real time    8.88

 eigenvalue-minimisations  :  4032
 total energy-change (2. order) :-0.6176545E-01  (-0.6167615E-01)
 number of electron     128.0000133 magnetization 
 augmentation part        3.4990466 magnetization 

 Broyden mixing:
  rms(total) = 0.22860E+01    rms(broyden)= 0.22855E+01
  rms(prec ) = 0.33681E+01
  weight for this iteration     100.00

 Free energy of the ion-electron system (eV)
  ---------------------------------------------------
  alpha Z        PSCENC =       197.80471723
  Ewald energy   TEWEN  =     -1611.40102037
  -Hartree energ DENC   =     -2633.63931743
  -exchange      EXHF   =         0.00000000
  -V(xc)+E(xc)   XCENC  =       422.84404219
  PAW double counting   =      3472.70548416    -3490.92647004
  entropy T*S    EENTRO =        -0.00000000
  eigenvalues    EBANDS =     -1337.07370988
  atomic energy  EATOM  =      4708.07116389
  ---------------------------------------------------
  free energy    TOTEN  =      -271.61511025 eV

  energy without entropy =     -271.61511025  energy(sigma->0) =     -271.61511025


--------------------------------------------------------------------------------------------------------




----------------------------------------- Iteration    1(   6)  ---------------------------------------


    POTLOK:  cpu time    0.04: real time    0.05
    SETDIJ:  cpu time    0.02: real time    0.04
     EDDAV:  cpu time    6.00: real time    7.08
       DOS:  cpu time    0.00: real time    0.00
    CHARGE:  cpu time    0.42: real time    0.47
    MIXING:  cpu time    0.00: real time    0.03
    --------------------------------------------
      LOOP:  cpu time    6.49: real time    7.70

 eigenvalue-minimisations  :  3704
 total energy-change (2. order) : 0.1418754E+02  (-0.1903288E+01)
 number of electron     128.0000128 magnetization 
 augmentation part        3.3670216 magnetization 

 Broyden mixing:
  rms(total) = 0.13289E+01    rms(broyden)= 0.13289E+01
  rms(prec ) = 0.17880E+01
  weight for this iteration     100.00

 eigenvalues of (default mixing * dielectric matrix)
  average eigenvalue GAMMA=   2.0604
  2.0604

 Free energy of the ion-electron system (eV)
  ---------------------------------------------------
  alpha Z        PSCENC =       197.80471723
  Ewald energy   TEWEN  =     -1611.40102037
  -Hartree energ DENC   =     -2807.35024734
  -exchange      EXHF   =         0.00000000
  -V(xc)+E(xc)   XCENC  =       430.63095506
  PAW double counting   =      6482.83567136    -6503.23692680
  entropy T*S    EENTRO =        -0.00000000
  eigenvalues    EBANDS =     -1154.78188126
  atomic energy  EATOM  =      4708.07116389
  ---------------------------------------------------
  free energy    TOTEN  =      -257.42756824 eV

  energy without entropy =     -257.42756824  energy(sigma->0) =     -257.42756824


--------------------------------------------------------------------------------------------------------




----------------------------------------- Iteration    1(   7)  ---------------------------------------


    POTLOK:  cpu time    0.04: real time    0.05
    SETDIJ:  cpu time    0.01: real time    0.03
     EDDAV:  cpu time    6.64: real time    8.44
       DOS:  cpu time    0.00: real time    0.01
    CHARGE:  cpu time    0.42: real time    0.45
    MIXING:  cpu time    0.01: real time    0.03
    --------------------------------------------
      LOOP:  cpu time    7.13: real time    9.03

 eigenvalue-minimisations  :  3872
 total energy-change (2. order) : 0.3879596E+01  (-0.1541609E+01)
 number of electron     128.0000122 magnetization 
 augmentation part        3.2256706 magnetization 

 Broyden mixing:
  rms(total) = 0.42904E+00    rms(broyden)= 0.42890E+00
  rms(prec ) = 0.50249E+00
  weight for this iteration     100.00

 eigenvalues of (default mixing * dielectric matrix)
  average eigenvalue GAMMA=   2.0932
  1.9710  2.2155

 Free energy of the ion-electron system (eV)
  ---------------------------------------------------
  alpha Z        PSCENC =       197.80471723
  Ewald energy   TEWEN  =     -1611.40102037
  -Hartree energ DENC   =     -2979.64179934
  -exchange      EXHF   =         0.00000000
  -V(xc)+E(xc)   XCENC  =       438.80964240
  PAW double counting   =     11451.84172784   -11473.88160500
  entropy T*S    EENTRO =        -0.00000000
  eigenvalues    EBANDS =      -985.15079882
  atomic energy  EATOM  =      4708.07116389
  ---------------------------------------------------
  free energy    TOTEN  =      -253.54797218 eV

  energy without entropy =     -253.54797218  energy(sigma->0) =     -253.54797218


--------------------------------------------------------------------------------------------------------




----------------------------------------- Iteration    1(   8)  ---------------------------------------


    POTLOK:  cpu time    0.04: real time    0.05
    SETDIJ:  cpu time    0.02: real time    0.04
     EDDAV:  cpu time    6.65: real time    9.27
       DOS:  cpu time    0.00: real time    0.00
    CHARGE:  cpu time    0.42: real time    0.44
    MIXING:  cpu time    0.01: real time    0.06
    --------------------------------------------
      LOOP:  cpu time    7.14: real time    9.88

 eigenvalue-minimisations  :  3763
 total energy-change (2. order) :-0.6518928E-01  (-0.1063964E+00)
 number of electron     128.0000122 magnetization 
 augmentation part        3.2230872 magnetization 

 Broyden mixing:
  rms(total) = 0.52784E-01    rms(broyden)= 0.52738E-01
  rms(prec ) = 0.10594E+00
  weight for this iteration     100.00

 eigenvalues of (default mixing * dielectric matrix)
  average eigenvalue GAMMA=   1.8301
  2.4001  1.5451  1.5451

 Free energy of the ion-electron system (eV)
  ---------------------------------------------------
  alpha Z        PSCENC =       197.80471723
  Ewald energy   TEWEN  =     -1611.40102037
  -Hartree energ DENC   =     -2986.80599098
  -exchange      EXHF   =         0.00000000
  -V(xc)+E(xc)   XCENC  =       439.42390798
  PAW double counting   =     13266.02713695   -13287.56896510
  entropy T*S    EENTRO =        -0.00000000
  eigenvalues    EBANDS =      -979.16411105
  atomic energy  EATOM  =      4708.07116389
  ---------------------------------------------------
  free energy    TOTEN  =      -253.61316145 eV

  energy without entropy =     -253.61316145  energy(sigma->0) =     -253.61316145


--------------------------------------------------------------------------------------------------------




----------------------------------------- Iteration    1(   9)  ---------------------------------------


    POTLOK:  cpu time    0.04: real time    0.05
    SETDIJ:  cpu time    0.01: real time    0.03
     EDDAV:  cpu time    6.23: real time    7.30
       DOS:  cpu time    0.00: real time    0.00
    CHARGE:  cpu time    0.44: real time    0.50
    MIXING:  cpu time    0.01: real time    0.03
    --------------------------------------------
      LOOP:  cpu time    6.73: real time    7.94

 eigenvalue-minimisations  :  3864
 total energy-change (2. order) : 0.2582470E-02  (-0.1216804E-01)
 number of electron     128.0000122 magnetization 
 augmentation part        3.2133831 magnetization 

 Broyden mixing:
  rms(total) = 0.33563E-01    rms(broyden)= 0.33551E-01
  rms(prec ) = 0.52533E-01
  weight for this iteration     100.00

 eigenvalues of (default mixing * dielectric matrix)
  average eigenvalue GAMMA=   1.7938
  2.3137  2.3137  1.2739  1.2739

 Free energy of the ion-electron system (eV)
  ---------------------------------------------------
  alpha Z        PSCENC =       197.80471723
  Ewald energy   TEWEN  =     -1611.40102037
  -Hartree energ DENC   =     -2997.56799862
  -exchange      EXHF   =         0.00000000
  -V(xc)+E(xc)   XCENC  =       439.92160033
  PAW double counting   =     13392.73687456   -13414.33780630
  entropy T*S    EENTRO =        -0.00000000
  eigenvalues    EBANDS =      -968.83810970
  atomic energy  EATOM  =      4708.07116389
  ---------------------------------------------------
  free energy    TOTEN  =      -253.61057898 eV

  energy without entropy =     -253.61057898  energy(sigma->0) =     -253.61057898


--------------------------------------------------------------------------------------------------------




----------------------------------------- Iteration    1(  10)  ---------------------------------------


    POTLOK:  cpu time    0.04: real time    0.05
    SETDIJ:  cpu time    0.01: real time    0.04
     EDDAV:  cpu time    6.39: real time    7.82
       DOS:  cpu time    0.00: real time    0.00
    CHARGE:  cpu time    0.42: real time    0.43
    MIXING:  cpu time    0.00: real time    0.03
    --------------------------------------------
      LOOP:  cpu time    6.88: real time    8.39

 eigenvalue-minimisations  :  3568
 total energy-change (2. order) :-0.9512635E-02  (-0.1142948E-02)
 number of electron     128.0000122 magnetization 
 augmentation part        3.2146784 magnetization 

 Broyden mixing:
  rms(total) = 0.13361E-01    rms(broyden)= 0.13359E-01
  rms(prec ) = 0.27942E-01
  weight for this iteration     100.00

 eigenvalues of (default mixing * dielectric matrix)
  average eigenvalue GAMMA=   1.7810
  2.6217  2.6217  1.4524  1.3397  0.8694

 Free energy of the ion-electron system (eV)
  ---------------------------------------------------
  alpha Z        PSCENC =       197.80471723
  Ewald energy   TEWEN  =     -1611.40102037
  -Hartree energ DENC   =     -2997.19819459
  -exchange      EXHF   =         0.00000000
  -V(xc)+E(xc)   XCENC  =       439.91080482
  PAW double counting   =     13232.30678797   -13253.80876622
  entropy T*S    EENTRO =        -0.00000000
  eigenvalues    EBANDS =      -969.30558434
  atomic energy  EATOM  =      4708.07116389
  ---------------------------------------------------
  free energy    TOTEN  =      -253.62009162 eV

  energy without entropy =     -253.62009162  energy(sigma->0) =     -253.62009162


--------------------------------------------------------------------------------------------------------




----------------------------------------- Iteration    1(  11)  ---------------------------------------


    POTLOK:  cpu time    0.04: real time    0.06
    SETDIJ:  cpu time    0.01: real time    0.03
     EDDAV:  cpu time    6.18: real time    7.18
       DOS:  cpu time    0.00: real time    0.02
    CHARGE:  cpu time    0.44: real time    0.49
    MIXING:  cpu time    0.01: real time    0.06
    --------------------------------------------
      LOOP:  cpu time    6.68: real time    7.84

 eigenvalue-minimisations  :  3592
 total energy-change (2. order) : 0.1341909E-02  (-0.3993623E-03)
 number of electron     128.0000122 magnetization 
 augmentation part        3.2129648 magnetization 

 Broyden mixing:
  rms(total) = 0.50381E-02    rms(broyden)= 0.50373E-02
  rms(prec ) = 0.83457E-02
  weight for this iteration     100.00

 eigenvalues of (default mixing * dielectric matrix)
  average eigenvalue GAMMA=   1.8215
  2.7562  2.4692  2.0723  1.3434  1.3434  0.9443

 Free energy of the ion-electron system (eV)
  ---------------------------------------------------
  alpha Z        PSCENC =       197.80471723
  Ewald energy   TEWEN  =     -1611.40102037
  -Hartree energ DENC   =     -3000.39483537
  -exchange      EXHF   =         0.00000000
  -V(xc)+E(xc)   XCENC  =       440.07430989
  PAW double counting   =     13261.49591908   -13283.00533791
  entropy T*S    EENTRO =        -0.00000000
  eigenvalues    EBANDS =      -966.26366615
  atomic energy  EATOM  =      4708.07116389
  ---------------------------------------------------
  free energy    TOTEN  =      -253.61874971 eV

  energy without entropy =     -253.61874971  energy(sigma->0) =     -253.61874971


--------------------------------------------------------------------------------------------------------




----------------------------------------- Iteration    1(  12)  ---------------------------------------


    POTLOK:  cpu time    0.05: real time    0.07
    SETDIJ:  cpu time    0.02: real time    0.06
     EDDAV:  cpu time    6.87: real time    8.66
       DOS:  cpu time    0.00: real time    0.01
    CHARGE:  cpu time    0.42: real time    0.46
    MIXING:  cpu time    0.01: real time    0.02
    --------------------------------------------
      LOOP:  cpu time    7.38: real time    9.32

 eigenvalue-minimisations  :  4176
 total energy-change (2. order) : 0.1493001E-03  (-0.8305551E-04)
 number of electron     128.0000122 magnetization 
 augmentation part        3.2117897 magnetization 

 Broyden mixing:
  rms(total) = 0.13696E-02    rms(broyden)= 0.13664E-02
  rms(prec ) = 0.20627E-02
  weight for this iteration     100.00

 eigenvalues of (default mixing * dielectric matrix)
  average eigenvalue GAMMA=   1.8187
  3.2347  2.5205  2.0893  1.4926  1.4926  0.9507  0.9507

 Free energy of the ion-electron system (eV)
  ---------------------------------------------------
  alpha Z        PSCENC =       197.80471723
  Ewald energy   TEWEN  =     -1611.40102037
  -Hartree energ DENC   =     -3001.57236088
  -exchange      EXHF   =         0.00000000
  -V(xc)+E(xc)   XCENC  =       440.13480320
  PAW double counting   =     13268.21664392   -13289.73944585
  entropy T*S    EENTRO =        -0.00000000
  eigenvalues    EBANDS =      -965.13310155
  atomic energy  EATOM  =      4708.07116389
  ---------------------------------------------------
  free energy    TOTEN  =      -253.61860041 eV

  energy without entropy =     -253.61860041  energy(sigma->0) =     -253.61860041


--------------------------------------------------------------------------------------------------------




----------------------------------------- Iteration    1(  13)  ---------------------------------------


    POTLOK:  cpu time    0.04: real time    0.05
    SETDIJ:  cpu time    0.01: real time    0.04
     EDDAV:  cpu time    6.73: real time    8.40
       DOS:  cpu time    0.00: real time    0.00
    CHARGE:  cpu time    0.42: real time    0.45
    MIXING:  cpu time    0.00: real time    0.02
    --------------------------------------------
      LOOP:  cpu time    7.21: real time    8.99

 eigenvalue-minimisations  :  3720
 total energy-change (2. order) : 0.1158479E-04  (-0.4319795E-05)
 number of electron     128.0000122 magnetization 
 augmentation part        3.2118038 magnetization 

 Broyden mixing:
  rms(total) = 0.35020E-03    rms(broyden)= 0.34987E-03
  rms(prec ) = 0.42739E-03
  weight for this iteration     100.00

 eigenvalues of (default mixing * dielectric matrix)
  average eigenvalue GAMMA=   1.8071
  3.1649  2.3826  2.3826  1.7024  1.7024  0.9611  1.0802  1.0802

 Free energy of the ion-electron system (eV)
  ---------------------------------------------------
  alpha Z        PSCENC =       197.80471723
  Ewald energy   TEWEN  =     -1611.40102037
  -Hartree energ DENC   =     -3001.46468081
  -exchange      EXHF   =         0.00000000
  -V(xc)+E(xc)   XCENC  =       440.13047543
  PAW double counting   =     13262.48599272   -13284.00738822
  entropy T*S    EENTRO =        -0.00000000
  eigenvalues    EBANDS =      -965.23784869
  atomic energy  EATOM  =      4708.07116389
  ---------------------------------------------------
  free energy    TOTEN  =      -253.61858883 eV

  energy without entropy =     -253.61858883  energy(sigma->0) =     -253.61858883


--------------------------------------------------------------------------------------------------------




----------------------------------------- Iteration    1(  14)  ---------------------------------------


    POTLOK:  cpu time    0.04: real time    0.06
    SETDIJ:  cpu time    0.01: real time    0.03
     EDDAV:  cpu time    5.54: real time    8.34
       DOS:  cpu time    0.00: real time    0.00
    --------------------------------------------
      LOOP:  cpu time    5.60: real time    8.47

 eigenvalue-minimisations  :  2800
 total energy-change (2. order) : 0.6288246E-06  (-0.1509088E-06)
 number of electron     128.0000122 magnetization 
 augmentation part        3.2118038 magnetization 

 Free energy of the ion-electron system (eV)
  ---------------------------------------------------
  alpha Z        PSCENC =       197.80471723
  Ewald energy   TEWEN  =     -1611.40102037
  -Hartree energ DENC   =     -3001.46137839
  -exchange      EXHF   =         0.00000000
  -V(xc)+E(xc)   XCENC  =       440.13024816
  PAW double counting   =     13263.90830589   -13285.42968591
  entropy T*S    EENTRO =        -0.00000000
  eigenvalues    EBANDS =      -965.24093870
  atomic energy  EATOM  =      4708.07116389
  ---------------------------------------------------
  free energy    TOTEN  =      -253.61858820 eV

  energy without entropy =     -253.61858820  energy(sigma->0) =     -253.61858820


--------------------------------------------------------------------------------------------------------




 average (electrostatic) potential at core
  the test charge radii are     0.6991
  (the norm of the test charge is              1.0000)
       1 -54.4068       2 -54.4068       3 -54.4068       4 -54.4068       5 -54.4068
       6 -54.4068       7 -54.4068       8 -54.4068       9 -54.4068      10 -54.4068
      11 -54.4068      12 -54.4068      13 -54.4068      14 -54.4068      15 -54.4068
      16 -54.4068      17 -54.4068      18 -54.4068      19 -54.4068      20 -54.4068
      21 -54.4068      22 -54.4068      23 -54.4068      24 -54.4068      25 -54.4068
      26 -54.4068      27 -54.4068      28 -54.4068      29 -54.4068      30 -54.4068
      31 -54.4068      32 -54.4068
 
 
 
 E-fermi :   2.9331     XC(G=0):  -7.7402     alpha+bet : -7.5416


 k-point     1 :       0.0625    0.0625    0.0625
  band No.  band energies     occupation 
      1     -20.0569      2.00000
      2     -19.6788      2.00000
      3     -19.6788      2.00000
      4     -19.6788      2.00000
      5     -19.5918      2.00000
      6     -19.5918      2.00000
      7     -19.5918      2.00000
      8     -19.1728      2.00000
      9     -11.8877      2.00000
     10     -11.8877      2.00000
     11     -11.8877      2.00000
     12     -11.8814      2.00000
     13     -11.8814      2.00000
     14     -11.8814      2.00000
     15     -11.6343      2.00000
     16     -11.6343      2.00000
     17     -11.6274      2.00000
     18     -11.0606      2.00000
     19     -11.0606      2.00000
     20     -11.0606      2.00000
     21     -10.9165      2.00000
     22     -10.9165      2.00000
     23     -10.9165      2.00000
     24      -9.9780      2.00000
     25      -7.7449      2.00000
     26      -7.7449      2.00000
     27      -7.7120      2.00000
     28      -6.2380      2.00000
     29      -6.2380      2.00000
     30      -6.2380      2.00000
     31      -6.2367      2.00000
     32      -6.2367      2.00000
     33      -6.2367      2.00000
     34      -5.9926      2.00000
     35      -5.9926      2.00000
     36      -5.9926      2.00000
     37      -5.6748      2.00000
     38      -5.6747      2.00000
     39      -5.6747      2.00000
     40      -4.9919      2.00000
     41      -4.9919      2.00000
     42      -4.9919      2.00000
     43      -4.9619      2.00000
     44      -4.9619      2.00000
     45      -4.9619      2.00000
     46      -3.2428      2.00000
     47      -3.2428      2.00000
     48      -3.1328      2.00000
     49      -2.7823      2.00000
     50      -2.7823      2.00000
     51      -1.3590      2.00000
     52      -1.3590      2.00000
     53      -1.3590      2.00000
     54      -0.9279      2.00000
     55      -0.9279      2.00000
     56      -0.9279      2.00000
     57      -0.3094      2.00000
     58      -0.3094      2.00000
     59      -0.3094      2.00000
     60       0.1141      2.00000
     61       0.1141      2.00000
     62       0.1141      2.00000
     63       2.6664      2.00000
     64       2.6664      2.00000
     65       5.0358      0.00000
     66       5.1593      0.00000
     67       5.1593      0.00000
     68       5.2558      0.00000
     69       5.9898      0.00000
     70       5.9898      0.00000
     71       5.9898      0.00000
     72       6.0194      0.00000
     73       6.0194      0.00000
     74       6.0194      0.00000
     75       6.9556      0.00000
     76       6.9556      0.00000
     77       6.9557      0.00000
     78       7.3634      0.00000
     79       7.3970      0.00000
     80       7.4670      0.00000
     81       7.6487      0.00000

 k-point     2 :       0.1875    0.0625    0.0625
  band No.  band energies     occupation 
      1     -20.0413      2.00000
      2     -19.7621      2.00000
      3     -19.6787      2.00000
      4     -19.6787      2.00000
      5     -19.5918      2.00000
      6     -19.5918      2.00000
      7     -19.5055      2.00000
      8     -19.1916      2.00000
      9     -11.8954      2.00000
     10     -11.8954      2.00000
     11     -11.8776      2.00000
     12     -11.8776      2.00000
     13     -11.8703      2.00000
     14     -11.8645      2.00000
     15     -11.6554      2.00000
     16     -11.6538      2.00000
     17     -11.6070      2.00000
     18     -11.1908      2.00000
     19     -11.0637      2.00000
     20     -11.0637      2.00000
     21     -10.9065      2.00000
     22     -10.9065      2.00000
     23     -10.7654      2.00000
     24     -10.0398      2.00000
     25      -7.6870      2.00000
     26      -7.6664      2.00000
     27      -7.5993      2.00000
     28      -6.4845      2.00000
     29      -6.4517      2.00000
     30      -6.3122      2.00000
     31      -6.3122      2.00000
     32      -6.2951      2.00000
     33      -6.2675      2.00000
     34      -6.2675      2.00000
     35      -5.8830      2.00000
     36      -5.8830      2.00000
     37      -5.6284      2.00000
     38      -5.6284      2.00000
     39      -5.3305      2.00000
     40      -5.0535      2.00000
     41      -5.0535      2.00000
     42      -4.9652      2.00000
     43      -4.9652      2.00000
     44      -4.7458      2.00000
     45      -4.7267      2.00000
     46      -3.5549      2.00000
     47      -3.3079      2.00000
     48      -3.2416      2.00000
     49      -2.7682      2.00000
     50      -2.4752      2.00000
     51      -1.7381      2.00000
     52      -1.3107      2.00000
     53      -1.3107      2.00000
     54      -0.8672      2.00000
     55      -0.8672      2.00000
     56      -0.7053      2.00000
     57      -0.4538      2.00000
     58      -0.3842      2.00000
     59      -0.3842      2.00000
     60       0.0686      2.00000
     61       0.0686      2.00000
     62       0.5460      2.00000
     63       2.2975      2.00000
     64       2.5179      2.00000
     65       5.0989      0.00000
     66       5.2025      0.00000
     67       5.2905      0.00000
     68       5.5925      0.00000
     69       5.9274      0.00000
     70       5.9379      0.00000
     71       6.0022      0.00000
     72       6.0022      0.00000
     73       6.1011      0.00000
     74       6.1011      0.00000
     75       6.5641      0.00000
     76       7.0920      0.00000
     77       7.0920      0.00000
     78       7.4301      0.00000
     79       7.4461      0.00000
     80       7.6268      0.00000
     81       7.6560      0.00000

 k-point     3 :       0.3125    0.0625    0.0625
  band No.  band energies     occupation 
      1     -20.0106      2.00000
      2     -19.8394      2.00000
      3     -19.6787      2.00000
      4     -19.6787      2.00000
      5     -19.5919      2.00000
      6     -19.5919      2.00000
      7     -19.4225      2.00000
      8     -19.2281      2.00000
      9     -11.9023      2.00000
     10     -11.9023      2.00000
     11     -11.8763      2.00000
     12     -11.8762      2.00000
     13     -11.8374      2.00000
     14     -11.8326      2.00000
     15     -11.6933      2.00000
     16     -11.6930      2.00000
     17     -11.5621      2.00000
     18     -11.3084      2.00000
     19     -11.0671      2.00000
     20     -11.0671      2.00000
     21     -10.8933      2.00000
     22     -10.8933      2.00000
     23     -10.6074      2.00000
     24     -10.1502      2.00000
     25      -7.5491      2.00000
     26      -7.5146      2.00000
     27      -7.4160      2.00000
     28      -6.7897      2.00000
     29      -6.7431      2.00000
     30      -6.6043      2.00000
     31      -6.3792      2.00000
     32      -6.3792      2.00000
     33      -6.3048      2.00000
     34      -6.3047      2.00000
     35      -5.7509      2.00000
     36      -5.7509      2.00000
     37      -5.5704      2.00000
     38      -5.5704      2.00000
     39      -5.1318      2.00000
     40      -5.1318      2.00000
     41      -4.9908      2.00000
     42      -4.9908      2.00000
     43      -4.9745      2.00000
     44      -4.4055      2.00000
     45      -4.3943      2.00000
     46      -3.9008      2.00000
     47      -3.4710      2.00000
     48      -3.4444      2.00000
     49      -2.6966      2.00000
     50      -2.1423      2.00000
     51      -2.0665      2.00000
     52      -1.2260      2.00000
     53      -1.2260      2.00000
     54      -1.0847      2.00000
     55      -0.7695      2.00000
     56      -0.7695      2.00000
     57      -0.5023      2.00000
     58      -0.5023      2.00000
     59      -0.0105      2.00000
     60      -0.0105      2.00000
     61       0.0621      2.00000
     62       0.9910      2.00000
     63       1.7631      2.00000
     64       2.2380      2.00000
     65       5.2459      0.00000
     66       5.2569      0.00000
     67       5.4402      0.00000
     68       5.7797      0.00000
     69       5.8054      0.00000
     70       6.0618      0.00000
     71       6.0618      0.00000
     72       6.2161      0.00000
     73       6.2180      0.00000
     74       6.2369      0.00000
     75       6.2369      0.00000
     76       7.1554      0.00000
     77       7.1555      0.00000
     78       7.3830      0.00000
     79       7.3859      0.00000
     80       7.6096      0.00000
     81       7.6834      0.00000

 k-point     4 :       0.4375    0.0625    0.0625
  band No.  band energies     occupation 
      1     -19.9657      2.00000
      2     -19.9080      2.00000
      3     -19.6786      2.00000
      4     -19.6786      2.00000
      5     -19.5919      2.00000
      6     -19.5919      2.00000
      7     -19.3464      2.00000
      8     -19.2806      2.00000
      9     -11.9063      2.00000
     10     -11.9063      2.00000
     11     -11.8761      2.00000
     12     -11.8761      2.00000
     13     -11.7927      2.00000
     14     -11.7894      2.00000
     15     -11.7421      2.00000
     16     -11.7406      2.00000
     17     -11.4960      2.00000
     18     -11.4107      2.00000
     19     -11.0691      2.00000
     20     -11.0690      2.00000
     21     -10.8845      2.00000
     22     -10.8845      2.00000
     23     -10.4469      2.00000
     24     -10.2911      2.00000
     25      -7.3430      2.00000
     26      -7.3003      2.00000
     27      -7.1794      2.00000
     28      -7.0841      2.00000
     29      -7.0368      2.00000
     30      -6.9042      2.00000
     31      -6.4160      2.00000
     32      -6.4160      2.00000
     33      -6.3282      2.00000
     34      -6.3282      2.00000
     35      -5.6373      2.00000
     36      -5.6373      2.00000
     37      -5.5496      2.00000
     38      -5.5496      2.00000
     39      -5.1927      2.00000
     40      -5.1927      2.00000
     41      -5.0171      2.00000
     42      -5.0171      2.00000
     43      -4.6145      2.00000
     44      -4.2557      2.00000
     45      -4.0511      2.00000
     46      -4.0466      2.00000
     47      -3.7277      2.00000
     48      -3.7223      2.00000
     49      -2.5511      2.00000
     50      -2.3387      2.00000
     51      -1.8005      2.00000
     52      -1.4483      2.00000
     53      -1.1464      2.00000
     54      -1.1464      2.00000
     55      -0.6912      2.00000
     56      -0.6912      2.00000
     57      -0.5978      2.00000
     58      -0.5978      2.00000
     59      -0.0839      2.00000
     60      -0.0839      2.00000
     61       0.6122      2.00000
     62       1.1858      2.00000
     63       1.4371      2.00000
     64       1.8637      2.00000
     65       5.3833      0.00000
     66       5.4359      0.00000
     67       5.5744      0.00000
     68       5.6338      0.00000
     69       5.6589      0.00000
     70       5.9191      0.00000
     71       6.1385      0.00000
     72       6.1385      0.00000
     73       6.3709      0.00000
     74       6.3709      0.00000
     75       6.9106      0.00000
     76       7.0359      0.00000
     77       7.0367      0.00000
     78       7.2079      0.00000
     79       7.2091      0.00000
     80       7.6253      0.00000
     81       7.7365      0.00000

 k-point     5 :       0.1875    0.1875    0.0625
  band No.  band energies     occupation 
      1     -20.0262      2.00000
      2     -19.7577      2.00000
      3     -19.7577      2.00000
      4     -19.6898      2.00000
      5     -19.5805      2.00000
      6     -19.5100      2.00000
      7     -19.5100      2.00000
      8     -19.2095      2.00000
      9     -11.9087      2.00000
     10     -11.8796      2.00000
     11     -11.8796      2.00000
     12     -11.8614      2.00000
     13     -11.8593      2.00000
     14     -11.8593      2.00000
     15     -11.6757      2.00000
     16     -11.6519      2.00000
     17     -11.6077      2.00000
     18     -11.1920      2.00000
     19     -11.1920      2.00000
     20     -11.1011      2.00000
     21     -10.8645      2.00000
     22     -10.7606      2.00000
     23     -10.7606      2.00000
     24     -10.0910      2.00000
     25      -7.6576      2.00000
     26      -7.5980      2.00000
     27      -7.4654      2.00000
     28      -6.5598      2.00000
     29      -6.5598      2.00000
     30      -6.4635      2.00000
     31      -6.4635      2.00000
     32      -6.3945      2.00000
     33      -6.3300      2.00000
     34      -6.1551      2.00000
     35      -6.1551      2.00000
     36      -5.7503      2.00000
     37      -5.5815      2.00000
     38      -5.3139      2.00000
     39      -5.3139      2.00000
     40      -5.1490      2.00000
     41      -4.9085      2.00000
     42      -4.8120      2.00000
     43      -4.8120      2.00000
     44      -4.7468      2.00000
     45      -4.7468      2.00000
     46      -3.6484      2.00000
     47      -3.5162      2.00000
     48      -3.3518      2.00000
     49      -2.6029      2.00000
     50      -2.3897      2.00000
     51      -1.6781      2.00000
     52      -1.6781      2.00000
     53      -1.3185      2.00000
     54      -0.7598      2.00000
     55      -0.7598      2.00000
     56      -0.7505      2.00000
     57      -0.5529      2.00000
     58      -0.4049      2.00000
     59      -0.4049      2.00000
     60       0.1388      2.00000
     61       0.4762      2.00000
     62       0.4762      2.00000
     63       2.1339      2.00000
     64       2.2718      2.00000
     65       5.1290      0.00000
     66       5.2639      0.00000
     67       5.4089      0.00000
     68       5.8405      0.00000
     69       5.8758      0.00000
     70       5.8758      0.00000
     71       5.9612      0.00000
     72       6.0423      0.00000
     73       6.0423      0.00000
     74       6.1849      0.00000
     75       6.7700      0.00000
     76       6.7700      0.00000
     77       7.1510      0.00000
     78       7.4907      0.00000
     79       7.5568      0.00000
     80       7.6632      0.00000
     81       7.7509      0.00000

 k-point     6 :       0.3125    0.1875    0.0625
  band No.  band energies     occupation 
      1     -19.9966      2.00000
      2     -19.8319      2.00000
      3     -19.7493      2.00000
      4     -19.7058      2.00000
      5     -19.5641      2.00000
      6     -19.5189      2.00000
      7     -19.4306      2.00000
      8     -19.2445      2.00000
      9     -11.9154      2.00000
     10     -11.8926      2.00000
     11     -11.8530      2.00000
     12     -11.8499      2.00000
     13     -11.8493      2.00000
     14     -11.8254      2.00000
     15     -11.7131      2.00000
     16     -11.6824      2.00000
     17     -11.5697      2.00000
     18     -11.3113      2.00000
     19     -11.1916      2.00000
     20     -11.1407      2.00000
     21     -10.8175      2.00000
     22     -10.7567      2.00000
     23     -10.6074      2.00000
     24     -10.1854      2.00000
     25      -7.5530      2.00000
     26      -7.4564      2.00000
     27      -7.2679      2.00000
     28      -6.8562      2.00000
     29      -6.7341      2.00000
     30      -6.6122      2.00000
     31      -6.5021      2.00000
     32      -6.4664      2.00000
     33      -6.4543      2.00000
     34      -6.3866      2.00000
     35      -5.9894      2.00000
     36      -5.5901      2.00000
     37      -5.5614      2.00000
     38      -5.2999      2.00000
     39      -5.1988      2.00000
     40      -4.9674      2.00000
     41      -4.9197      2.00000
     42      -4.8790      2.00000
     43      -4.7896      2.00000
     44      -4.4848      2.00000
     45      -4.4416      2.00000
     46      -3.9294      2.00000
     47      -3.6648      2.00000
     48      -3.5504      2.00000
     49      -2.5310      2.00000
     50      -2.1297      2.00000
     51      -1.9940      2.00000
     52      -1.5650      2.00000
     53      -1.3122      2.00000
     54      -1.1278      2.00000
     55      -0.8485      2.00000
     56      -0.7636      2.00000
     57      -0.5734      2.00000
     58      -0.3355      2.00000
     59       0.0995      2.00000
     60       0.1818      2.00000
     61       0.3572      2.00000
     62       0.8996      2.00000
     63       1.7053      2.00000
     64       2.0142      2.00000
     65       5.2345      0.00000
     66       5.3157      0.00000
     67       5.5920      0.00000
     68       5.6778      0.00000
     69       5.8794      0.00000
     70       5.9149      0.00000
     71       5.9663      0.00000
     72       6.2336      0.00000
     73       6.3048      0.00000
     74       6.3352      0.00000
     75       6.4558      0.00000
     76       6.8943      0.00000
     77       6.9600      0.00000
     78       7.3367      0.00000
     79       7.4771      0.00000
     80       7.5314      0.00000
     81       7.5889      0.00000

 k-point     7 :       0.4375    0.1875    0.0625
  band No.  band energies     occupation 
      1     -19.9534      2.00000
      2     -19.8979      2.00000
      3     -19.7372      2.00000
      4     -19.7223      2.00000
      5     -19.5470      2.00000
      6     -19.5315      2.00000
      7     -19.3578      2.00000
      8     -19.2947      2.00000
      9     -11.9141      2.00000
     10     -11.9056      2.00000
     11     -11.8473      2.00000
     12     -11.8453      2.00000
     13     -11.8076      2.00000
     14     -11.7801      2.00000
     15     -11.7598      2.00000
     16     -11.7297      2.00000
     17     -11.5033      2.00000
     18     -11.4160      2.00000
     19     -11.1856      2.00000
     20     -11.1696      2.00000
     21     -10.7816      2.00000
     22     -10.7618      2.00000
     23     -10.4549      2.00000
     24     -10.3108      2.00000
     25      -7.3744      2.00000
     26      -7.2557      2.00000
     27      -7.1362      2.00000
     28      -7.0251      2.00000
     29      -7.0088      2.00000
     30      -6.7497      2.00000
     31      -6.6212      2.00000
     32      -6.5830      2.00000
     33      -6.4579      2.00000
     34      -6.4315      2.00000
     35      -5.8192      2.00000
     36      -5.6644      2.00000
     37      -5.4263      2.00000
     38      -5.3261      2.00000
     39      -5.1490      2.00000
     40      -5.0435      2.00000
     41      -4.8623      2.00000
     42      -4.8346      2.00000
     43      -4.6141      2.00000
     44      -4.2648      2.00000
     45      -4.1465      2.00000
     46      -4.1289      2.00000
     47      -3.8654      2.00000
     48      -3.8208      2.00000
     49      -2.4266      2.00000
     50      -2.2464      2.00000
     51      -1.8147      2.00000
     52      -1.4794      2.00000
     53      -1.4238      2.00000
     54      -1.3231      2.00000
     55      -0.9295      2.00000
     56      -0.9191      2.00000
     57      -0.3999      2.00000
     58      -0.3101      2.00000
     59       0.1948      2.00000
     60       0.2422      2.00000
     61       0.6322      2.00000
     62       1.1770      2.00000
     63       1.3140      2.00000
     64       1.6952      2.00000
     65       5.3213      0.00000
     66       5.4749      0.00000
     67       5.5073      0.00000
     68       5.7267      0.00000
     69       5.8456      0.00000
     70       5.9461      0.00000
     71       5.9892      0.00000
     72       6.1433      0.00000
     73       6.4184      0.00000
     74       6.4284      0.00000
     75       6.7865      0.00000
     76       6.8221      0.00000
     77       6.8768      0.00000
     78       7.1170      0.00000
     79       7.2228      0.00000
     80       7.3328      0.00000
     81       7.4450      0.00000

 k-point     8 :       0.3125    0.3125    0.0625
  band No.  band energies     occupation 
      1     -19.9692      2.00000
      2     -19.8172      2.00000
      3     -19.8172      2.00000
      4     -19.7383      2.00000
      5     -19.5303      2.00000
      6     -19.4465      2.00000
      7     -19.4465      2.00000
      8     -19.2764      2.00000
      9     -11.9180      2.00000
     10     -11.8695      2.00000
     11     -11.8695      2.00000
     12     -11.8250      2.00000
     13     -11.8143      2.00000
     14     -11.8143      2.00000
     15     -11.7484      2.00000
     16     -11.6850      2.00000
     17     -11.5577      2.00000
     18     -11.3119      2.00000
     19     -11.3119      2.00000
     20     -11.2146      2.00000
     21     -10.7389      2.00000
     22     -10.6136      2.00000
     23     -10.6136      2.00000
     24     -10.2545      2.00000
     25      -7.4882      2.00000
     26      -7.3331      2.00000
     27      -7.0636      2.00000
     28      -6.8876      2.00000
     29      -6.8876      2.00000
     30      -6.7015      2.00000
     31      -6.7015      2.00000
     32      -6.6570      2.00000
     33      -6.4837      2.00000
     34      -6.2706      2.00000
     35      -6.2706      2.00000
     36      -5.6831      2.00000
     37      -5.3661      2.00000
     38      -5.1179      2.00000
     39      -4.9686      2.00000
     40      -4.9686      2.00000
     41      -4.7915      2.00000
     42      -4.6246      2.00000
     43      -4.6246      2.00000
     44      -4.5309      2.00000
     45      -4.5309      2.00000
     46      -4.0256      2.00000
     47      -3.9177      2.00000
     48      -3.7427      2.00000
     49      -2.3565      2.00000
     50      -2.0393      2.00000
     51      -1.8556      2.00000
     52      -1.8556      2.00000
     53      -1.3813      2.00000
     54      -1.1969      2.00000
     55      -1.1969      2.00000
     56      -1.0501      2.00000
     57      -0.3133      2.00000
     58       0.1418      2.00000
     59       0.1418      2.00000
     60       0.3457      2.00000
[...]
     37      -5.0957      2.00000
     38      -5.0957      2.00000
     39      -4.7060      2.00000
     40      -4.6211      2.00000
     41      -4.6211      2.00000
     42      -4.5229      2.00000
     43      -4.5229      2.00000
     44      -4.4303      2.00000
     45      -4.3818      2.00000
     46      -4.3266      2.00000
     47      -4.2408      2.00000
     48      -4.1760      2.00000
     49      -2.0993      2.00000
     50      -2.0037      2.00000
     51      -1.9120      2.00000
     52      -1.7694      2.00000
     53      -1.7694      2.00000
     54      -1.6831      2.00000
     55      -1.5724      2.00000
     56      -1.5724      2.00000
     57       0.4805      2.00000
     58       0.4805      2.00000
     59       0.7702      2.00000
     60       0.7702      2.00000
     61       0.7732      2.00000
     62       1.0457      2.00000
     63       1.1406      2.00000
     64       1.2663      2.00000
     65       5.1353      0.00000
     66       5.3383      0.00000
     67       5.5146      0.00000
     68       5.5146      0.00000
     69       5.5754      0.00000
     70       5.7155      0.00000
     71       5.9711      0.00000
     72       5.9711      0.00000
     73       6.4314      0.00000
     74       6.5435      0.00000
     75       6.5824      0.00000
     76       6.5824      0.00000
     77       6.6370      0.00000
     78       6.8181      0.00000
     79       6.8181      0.00000
     80       6.8367      0.00000
     81       7.5083      0.00000

 k-point    19 :       0.4375    0.4375    0.3125
  band No.  band energies     occupation 
      1     -19.8785      2.00000
      2     -19.8488      2.00000
      3     -19.8488      2.00000
      4     -19.8328      2.00000
      5     -19.4297      2.00000
      6     -19.4123      2.00000
      7     -19.4123      2.00000
      8     -19.3794      2.00000
      9     -11.8288      2.00000
     10     -11.8098      2.00000
     11     -11.8098      2.00000
     12     -11.7719      2.00000
     13     -11.7677      2.00000
     14     -11.7620      2.00000
     15     -11.7620      2.00000
     16     -11.7397      2.00000
     17     -11.5569      2.00000
     18     -11.4986      2.00000
     19     -11.4986      2.00000
     20     -11.4736      2.00000
     21     -10.4891      2.00000
     22     -10.4605      2.00000
     23     -10.4605      2.00000
     24     -10.4018      2.00000
     25      -7.2017      2.00000
     26      -7.1497      2.00000
     27      -7.0958      2.00000
     28      -7.0958      2.00000
     29      -7.0426      2.00000
     30      -7.0426      2.00000
     31      -7.0411      2.00000
     32      -6.9908      2.00000
     33      -6.2653      2.00000
     34      -6.0481      2.00000
     35      -6.0481      2.00000
     36      -5.9047      2.00000
     37      -5.0008      2.00000
     38      -4.8435      2.00000
     39      -4.8435      2.00000
     40      -4.5828      2.00000
     41      -4.5118      2.00000
     42      -4.4742      2.00000
     43      -4.4573      2.00000
     44      -4.4573      2.00000
     45      -4.4007      2.00000
     46      -4.4007      2.00000
     47      -4.3276      2.00000
     48      -4.2885      2.00000
     49      -1.9945      2.00000
     50      -1.9056      2.00000
     51      -1.9056      2.00000
     52      -1.8990      2.00000
     53      -1.7984      2.00000
     54      -1.7606      2.00000
     55      -1.7606      2.00000
     56      -1.7507      2.00000
     57       0.6975      2.00000
     58       0.8063      2.00000
     59       0.8063      2.00000
     60       0.8634      2.00000
     61       0.9520      2.00000
     62       0.9520      2.00000
     63       1.0811      2.00000
     64       1.0811      2.00000
     65       5.1434      0.00000
     66       5.2893      0.00000
     67       5.2893      0.00000
     68       5.3568      0.00000
     69       5.6671      0.00000
     70       5.7947      0.00000
     71       5.7947      0.00000
     72       5.8829      0.00000
     73       6.5158      0.00000
     74       6.5689      0.00000
     75       6.5695      0.00000
     76       6.5695      0.00000
     77       6.6509      0.00000
     78       6.7091      0.00000
     79       6.7091      0.00000
     80       6.7129      0.00000
     81       7.5129      0.00000

 k-point    20 :       0.4375    0.4375    0.4375
  band No.  band energies     occupation 
      1     -19.8646      2.00000
      2     -19.8486      2.00000
      3     -19.8486      2.00000
      4     -19.8486      2.00000
      5     -19.4124      2.00000
      6     -19.4124      2.00000
      7     -19.4124      2.00000
      8     -19.3948      2.00000
      9     -11.7785      2.00000
     10     -11.7785      2.00000
     11     -11.7785      2.00000
     12     -11.7585      2.00000
     13     -11.7585      2.00000
     14     -11.7585      2.00000
     15     -11.7487      2.00000
     16     -11.7487      2.00000
     17     -11.5876      2.00000
     18     -11.5492      2.00000
     19     -11.5492      2.00000
     20     -11.5492      2.00000
     21     -10.4378      2.00000
     22     -10.4378      2.00000
     23     -10.4378      2.00000
     24     -10.4076      2.00000
     25      -7.1563      2.00000
     26      -7.1563      2.00000
     27      -7.1014      2.00000
     28      -7.1014      2.00000
     29      -7.1014      2.00000
     30      -7.1003      2.00000
     31      -7.1003      2.00000
     32      -7.1003      2.00000
     33      -6.0839      2.00000
     34      -5.9453      2.00000
     35      -5.9453      2.00000
     36      -5.9453      2.00000
     37      -4.9077      2.00000
     38      -4.9077      2.00000
     39      -4.9077      2.00000
     40      -4.7463      2.00000
     41      -4.4174      2.00000
     42      -4.4174      2.00000
     43      -4.4174      2.00000
     44      -4.3940      2.00000
     45      -4.3940      2.00000
     46      -4.3940      2.00000
     47      -4.3425      2.00000
     48      -4.3425      2.00000
     49      -1.9434      2.00000
     50      -1.9434      2.00000
     51      -1.9103      2.00000
     52      -1.9103      2.00000
     53      -1.9103      2.00000
     54      -1.8586      2.00000
     55      -1.8586      2.00000
     56      -1.8586      2.00000
     57       0.9216      2.00000
     58       0.9216      2.00000
     59       0.9216      2.00000
     60       0.9817      2.00000
     61       0.9817      2.00000
     62       0.9817      2.00000
     63       1.0580      2.00000
     64       1.0580      2.00000
     65       5.0603      0.00000
     66       5.1439      0.00000
     67       5.1439      0.00000
     68       5.1439      0.00000
     69       5.7073      0.00000
     70       5.7773      0.00000
     71       5.7773      0.00000
     72       5.7773      0.00000
     73       6.5995      0.00000
     74       6.5995      0.00000
     75       6.5995      0.00000
     76       6.6236      0.00000
     77       6.6236      0.00000
     78       6.6845      0.00000
     79       6.6845      0.00000
     80       6.6845      0.00000
     81       7.4188      0.00000


--------------------------------------------------------------------------------------------------------


 soft charge-density along one line, spin component           1
         0         1         2         3         4         5         6         7         8         9
 total charge-density along one line
 
 pseudopotential strength for first ion, spin component:           1
  9.984  13.272  -0.004  -0.004  -0.004   0.013   0.013   0.013
 13.272  17.641  -0.005  -0.005  -0.005   0.017   0.017   0.017
 -0.004  -0.005  -4.143  -0.011  -0.011   8.111   0.019   0.019
 -0.004  -0.005  -0.011  -4.143  -0.011   0.019   8.111   0.019
 -0.004  -0.005  -0.011  -0.011  -4.143   0.019   0.019   8.111
  0.013   0.017   8.111   0.019   0.019 -18.004  -0.034  -0.034
  0.013   0.017   0.019   8.111   0.019  -0.034 -18.004  -0.034
  0.013   0.017   0.019   0.019   8.111  -0.034  -0.034 -18.004
 total augmentation occupancy for first ion, spin component:           1
  8.192  -3.799  -0.153  -0.153  -0.153  -0.049  -0.049  -0.049
 -3.799   1.861   0.138   0.138   0.138   0.035   0.035   0.035
 -0.153   0.138   1.607   0.092   0.092   0.137   0.032   0.032
 -0.153   0.138   0.092   1.607   0.092   0.032   0.137   0.032
 -0.153   0.138   0.092   0.092   1.607   0.032   0.032   0.137
 -0.049   0.035   0.137   0.032   0.032   0.014   0.006   0.006
 -0.049   0.035   0.032   0.137   0.032   0.006   0.014   0.006
 -0.049   0.035   0.032   0.032   0.137   0.006   0.006   0.014


------------------------ aborting loop because EDIFF is reached ----------------------------------------


    CHARGE:  cpu time    0.42: real time    0.43
    FORLOC:  cpu time    0.01: real time    0.01
    FORNL :  cpu time    1.85: real time    1.86
    STRESS:  cpu time    5.77: real time    7.42
    FORCOR:  cpu time    0.05: real time    0.08
    FORHAR:  cpu time    0.02: real time    0.02
    MIXING:  cpu time    0.00: real time    0.03
    OFIELD:  cpu time    0.00: real time    0.00

  FORCE on cell =-STRESS in cart. coord.  units (eV):
  Direction    XX          YY          ZZ          XY          YZ          ZX
  --------------------------------------------------------------------------------------
  Alpha Z   197.80472   197.80472   197.80472
  Ewald    -537.13865  -537.13865  -537.13865     0.00000     0.00000     0.00000
  Hartree  1000.47329  1000.47329  1000.47329    -0.00000    -0.00000    -0.00000
  E(xc)    -480.61762  -480.61762  -480.61762     0.00000     0.00000     0.00000
  Local   -2073.37210 -2073.37210 -2073.37210     0.00000    -0.00000    -0.00000
  n-local  -133.03152  -132.68285  -132.79108    -0.04244    -0.08835    -0.04453
  augment   -12.38781   -12.38781   -12.38781    -0.00000    -0.00000     0.00000
  Kinetic  2034.27287  2032.41805  2033.15372     0.33155     0.44464     0.28070
  Fock        0.00000     0.00000     0.00000     0.00000     0.00000     0.00000
  -------------------------------------------------------------------------------------
  Total      -4.79177    -4.79177    -4.79177     0.00000     0.00000    -0.00000
  in kB     -18.05316   -18.05316   -18.05316     0.00000     0.00000    -0.00000
  external pressure =      -18.05 kB  Pullay stress =        0.00 kB


 VOLUME and BASIS-vectors are now :
 -----------------------------------------------------------------------------
  energy-cutoff  :      400.00
  volume of cell :      425.26
      direct lattice vectors                 reciprocal lattice vectors
     7.519999981  0.000000000  0.000000000     0.132978724  0.000000000  0.000000000
     0.000000000  7.519999981  0.000000000     0.000000000  0.132978724  0.000000000
     0.000000000  0.000000000  7.519999981     0.000000000  0.000000000  0.132978724

  length of vectors
     7.519999981  7.519999981  7.519999981     0.132978724  0.132978724  0.132978724


 FORCES acting on ions
    electron-ion (+dipol)            ewald-force                    non-local-force                 convergence-correction
 -----------------------------------------------------------------------------------------------
   -.560E+02 -.560E+02 -.560E+02   0.603E+02 0.603E+02 0.603E+02   -.430E+01 -.430E+01 -.430E+01   -.383E-03 -.383E-03 -.383E-03
   0.560E+02 0.560E+02 -.560E+02   -.603E+02 -.603E+02 0.603E+02   0.430E+01 0.430E+01 -.430E+01   0.382E-03 0.383E-03 -.382E-03
   0.560E+02 -.560E+02 0.560E+02   -.603E+02 0.603E+02 -.603E+02   0.430E+01 -.430E+01 0.430E+01   0.383E-03 -.382E-03 0.382E-03
   -.560E+02 0.560E+02 0.560E+02   0.603E+02 -.603E+02 -.603E+02   -.430E+01 0.430E+01 0.430E+01   -.382E-03 0.382E-03 0.383E-03
   -.560E+02 -.560E+02 0.560E+02   0.603E+02 0.603E+02 -.603E+02   -.430E+01 -.430E+01 0.430E+01   -.383E-03 -.382E-03 0.383E-03
   0.560E+02 0.560E+02 0.560E+02   -.603E+02 -.603E+02 -.603E+02   0.430E+01 0.430E+01 0.430E+01   0.382E-03 0.382E-03 0.382E-03
   -.560E+02 0.560E+02 -.560E+02   0.603E+02 -.603E+02 0.603E+02   -.430E+01 0.430E+01 -.430E+01   -.382E-03 0.383E-03 -.383E-03
   0.560E+02 -.560E+02 -.560E+02   -.603E+02 0.603E+02 0.603E+02   0.430E+01 -.430E+01 -.430E+01   0.383E-03 -.383E-03 -.382E-03
   -.560E+02 -.560E+02 0.560E+02   0.603E+02 0.603E+02 -.603E+02   -.430E+01 -.430E+01 0.430E+01   -.382E-03 -.383E-03 0.383E-03
   -.560E+02 0.560E+02 -.560E+02   0.603E+02 -.603E+02 0.603E+02   -.430E+01 0.430E+01 -.430E+01   -.383E-03 0.383E-03 -.382E-03
   0.560E+02 -.560E+02 -.560E+02   -.603E+02 0.603E+02 0.603E+02   0.430E+01 -.430E+01 -.430E+01   0.383E-03 -.382E-03 -.383E-03
   0.560E+02 0.560E+02 -.560E+02   -.603E+02 -.603E+02 0.603E+02   0.430E+01 0.430E+01 -.430E+01   0.383E-03 0.382E-03 -.382E-03
   0.560E+02 -.560E+02 0.560E+02   -.603E+02 0.603E+02 -.603E+02   0.430E+01 -.430E+01 0.430E+01   0.382E-03 -.382E-03 0.383E-03
   -.560E+02 0.560E+02 0.560E+02   0.603E+02 -.603E+02 -.603E+02   -.430E+01 0.430E+01 0.430E+01   -.382E-03 0.383E-03 0.382E-03
   -.560E+02 -.560E+02 -.560E+02   0.603E+02 0.603E+02 0.603E+02   -.430E+01 -.430E+01 -.430E+01   -.383E-03 -.382E-03 -.382E-03
   0.560E+02 0.560E+02 -.560E+02   -.603E+02 -.603E+02 0.603E+02   0.430E+01 0.430E+01 -.430E+01   0.382E-03 0.382E-03 -.383E-03
   0.560E+02 -.560E+02 0.560E+02   -.603E+02 0.603E+02 -.603E+02   0.430E+01 -.430E+01 0.430E+01   0.383E-03 -.383E-03 0.383E-03
   -.560E+02 -.560E+02 0.560E+02   0.603E+02 0.603E+02 -.603E+02   -.430E+01 -.430E+01 0.430E+01   -.383E-03 -.383E-03 0.382E-03
   0.560E+02 0.560E+02 0.560E+02   -.603E+02 -.603E+02 -.603E+02   0.430E+01 0.430E+01 0.430E+01   0.382E-03 0.383E-03 0.383E-03
   -.560E+02 0.560E+02 -.560E+02   0.603E+02 -.603E+02 0.603E+02   -.430E+01 0.430E+01 -.430E+01   -.382E-03 0.382E-03 -.382E-03
   -.560E+02 -.560E+02 0.560E+02   0.603E+02 0.603E+02 -.603E+02   -.430E+01 -.430E+01 0.430E+01   -.382E-03 -.382E-03 0.382E-03
   -.560E+02 0.560E+02 -.560E+02   0.603E+02 -.603E+02 0.603E+02   -.430E+01 0.430E+01 -.430E+01   -.383E-03 0.382E-03 -.383E-03
   0.560E+02 0.560E+02 -.560E+02   -.603E+02 -.603E+02 0.603E+02   0.430E+01 0.430E+01 -.430E+01   0.383E-03 0.383E-03 -.383E-03
   0.560E+02 -.560E+02 0.560E+02   -.603E+02 0.603E+02 -.603E+02   0.430E+01 -.430E+01 0.430E+01   0.382E-03 -.383E-03 0.382E-03
   -.560E+02 -.560E+02 -.560E+02   0.603E+02 0.603E+02 0.603E+02   -.430E+01 -.430E+01 -.430E+01   -.382E-03 -.383E-03 -.382E-03
   -.560E+02 0.560E+02 0.560E+02   0.603E+02 -.603E+02 -.603E+02   -.430E+01 0.430E+01 0.430E+01   -.383E-03 0.382E-03 0.382E-03
   0.560E+02 0.560E+02 0.560E+02   -.603E+02 -.603E+02 -.603E+02   0.430E+01 0.430E+01 0.430E+01   0.383E-03 0.382E-03 0.383E-03
   0.560E+02 -.560E+02 -.560E+02   -.603E+02 0.603E+02 0.603E+02   0.430E+01 -.430E+01 -.430E+01   0.382E-03 -.383E-03 -.383E-03
   0.560E+02 -.560E+02 -.560E+02   -.603E+02 0.603E+02 0.603E+02   0.430E+01 -.430E+01 -.430E+01   0.382E-03 -.382E-03 -.382E-03
   -.560E+02 0.560E+02 0.560E+02   0.603E+02 -.603E+02 -.603E+02   -.430E+01 0.430E+01 0.430E+01   -.383E-03 0.383E-03 0.383E-03
   -.560E+02 -.560E+02 -.560E+02   0.603E+02 0.603E+02 0.603E+02   -.430E+01 -.430E+01 -.430E+01   -.382E-03 -.382E-03 -.383E-03
   0.560E+02 0.560E+02 0.560E+02   -.603E+02 -.603E+02 -.603E+02   0.430E+01 0.430E+01 0.430E+01   0.383E-03 0.383E-03 0.382E-03
 -----------------------------------------------------------------------------------------------
   0.204E-03 0.204E-03 0.381E-03   0.000E+00 0.284E-13 -.497E-13   0.107E-13 0.711E-14 0.151E-13   0.548E-08 0.547E-08 -.546E-07
 
 
 POSITION                                       TOTAL-FORCE (eV/Angst)
 -----------------------------------------------------------------------------------
      0.53082      0.53082      0.53082        -0.000000     -0.000000     -0.000000
      6.98918      3.22918      4.29082         0.000000      0.000000     -0.000000
      3.22918      4.29082      6.98918         0.000000     -0.000000      0.000000
      4.29082      6.98918      3.22918        -0.000000      0.000000      0.000000
      6.17082      2.41082      5.10918        -0.000000     -0.000000      0.000000
      1.34918      1.34918      1.34918         0.000000      0.000000      0.000000
      2.41082      5.10918      6.17082        -0.000000      0.000000     -0.000000
      5.10918      6.17082      2.41082         0.000000     -0.000000     -0.000000
      2.41082      6.17082      5.10918        -0.000000     -0.000000      0.000000
      6.17082      5.10918      2.41082        -0.000000      0.000000     -0.000000
      5.10918      2.41082      6.17082         0.000000     -0.000000     -0.000000
      3.22918      6.98918      4.29082         0.000000      0.000000     -0.000000
      6.98918      4.29082      3.22918         0.000000     -0.000000      0.000000
      4.29082      3.22918      6.98918        -0.000000      0.000000      0.000000
      0.53082      4.29082      4.29082        -0.000000     -0.000000     -0.000000
      6.98918      6.98918      0.53082         0.000000      0.000000     -0.000000
      3.22918      0.53082      3.22918         0.000000     -0.000000      0.000000
      6.17082      6.17082      1.34918        -0.000000     -0.000000      0.000000
      1.34918      5.10918      5.10918         0.000000      0.000000      0.000000
      2.41082      1.34918      2.41082        -0.000000      0.000000     -0.000000
      2.41082      2.41082      1.34918        -0.000000     -0.000000      0.000000
      6.17082      1.34918      6.17082        -0.000000      0.000000     -0.000000
      3.22918      3.22918      0.53082         0.000000      0.000000     -0.000000
      6.98918      0.53082      6.98918         0.000000     -0.000000      0.000000
      4.29082      0.53082      4.29082        -0.000000     -0.000000     -0.000000
      0.53082      6.98918      6.98918        -0.000000      0.000000      0.000000
      5.10918      1.34918      5.10918         0.000000      0.000000      0.000000
      1.34918      6.17082      6.17082         0.000000     -0.000000     -0.000000
      1.34918      2.41082      2.41082         0.000000     -0.000000     -0.000000
      0.53082      3.22918      3.22918        -0.000000      0.000000      0.000000
      4.29082      4.29082      0.53082        -0.000000     -0.000000     -0.000000
      5.10918      5.10918      1.34918         0.000000      0.000000      0.000000
 -----------------------------------------------------------------------------------
    total drift:                                0.000204      0.000204      0.000380


--------------------------------------------------------------------------------------------------------



  FREE ENERGIE OF THE ION-ELECTRON SYSTEM (eV)
  ---------------------------------------------------
  free  energy   TOTEN  =      -253.61858820 eV

  energy  without entropy=     -253.61858820  energy(sigma->0) =     -253.61858820
 


--------------------------------------------------------------------------------------------------------


    POTLOK:  cpu time    0.07: real time    0.12


--------------------------------------------------------------------------------------------------------


 Quasi-Newton relaxation of ions (Broydens 2nd method)
  g(Force)  = 0.250E-12   g(Stress)= 0.104E+00

 Reset! Starting new Quasi-Newton update for ions 


--------------------------------------------------------------------------------------------------------


    WAVPRE:  cpu time    0.01: real time    0.02
 FEWALD executed in parallel
    FEWALD:  cpu time    0.00: real time    0.01
    GENKIN:  cpu time    0.02: real time    0.02

 real space projection operators:
  total allocation   :       8396.00 KBytes
  max/ min on nodes  :        508.25        313.75

    ORTHCH:  cpu time    0.66: real time    0.75
     LOOP+:  cpu time  109.68: real time  146.91
