 vasp.5.4.4.18Apr17-6-g9f103f2a35 (build Nov 03 2018 12:24:39) complex          
  
 executed on             LinuxIFC date 2020.11.29  18:57:56
 running on   32 total cores
 distrk:  each k-point on   32 cores,    1 groups
 distr:  one band on NCORES_PER_BAND=   8 cores,    4 groups


--------------------------------------------------------------------------------------------------------


 INCAR:
 POTCAR:    PAW_PBE Se 06Sep2000                  
 POTCAR:    PAW_PBE V 08Apr2002                   
 POTCAR:    PAW_PBE Se 06Sep2000                  
   VRHFIN =Se: s2p4                                                             
   LEXCH  = PE                                                                  
   EATOM  =   257.1286 eV,   18.8984 Ry                                         
                                                                                
   TITEL  = PAW_PBE Se 06Sep2000                                                
   LULTRA =        F    use ultrasoft PP ?                                      
   IUNSCR =        1    unscreen: 0-lin 1-nonlin 2-no                           
   RPACOR =    1.900    partial core radius                                     
   POMASS =   78.960; ZVAL   =    6.000    mass and valenz                      
   RCORE  =    2.100    outmost cutoff radius                                   
   RWIGS  =    2.200; RWIGS  =    1.164    wigner-seitz radius (au A)           
   ENMAX  =  211.555; ENMIN  =  158.666 eV                                      
   ICORE  =        3    local potential                                         
   LCOR   =        T    correct aug charges                                     
   LPAW   =        T    paw PP                                                  
   EAUG   =  446.842                                                            
   DEXC   =    0.000                                                            
   RMAX   =    2.147    core radius for proj-oper                               
   RAUG   =    1.300    factor for augmentation sphere                          
   RDEP   =    2.177    radius for radial grids                                 
   RDEPT  =    1.928    core radius for aug-charge                              
                                                                                
   Atomic configuration                                                         
   10 entries                                                                   
     n  l   j            E        occ.                                          
     1  0  0.50    -12503.4787   2.0000                                         
     2  0  0.50     -1606.9547   2.0000                                         
     2  1  1.50     -1413.3140   6.0000                                         
     3  0  0.50      -213.4885   2.0000                                         
     3  1  1.50      -152.9538   6.0000                                         
     3  2  2.50       -53.1221  10.0000                                         
     4  0  0.50       -17.2865   2.0000                                         
     4  1  0.50        -6.5110   4.0000                                         
     4  2  2.50        -6.8029   0.0000                                         
     4  3  2.50        -6.8029   0.0000                                         
   Description                                                                  
     l       E           TYP  RCUT    TYP  RCUT                                 
     0    -17.2865377     23  2.100                                             
     0    -15.3094411     23  2.100                                             
     1     -6.5110275     23  2.100                                             
     1     -0.0695192     23  2.100                                             
     2     -6.8029130     23  2.100                                             
     3     -1.3605826      7  2.100                                             
  local pseudopotential read in
  partial core-charges read in
  partial kinetic energy density read in
  atomic valenz-charges read in
  non local Contribution for L=           0  read in
    real space projection operators read in
  non local Contribution for L=           0  read in
    real space projection operators read in
  non local Contribution for L=           1  read in
    real space projection operators read in
  non local Contribution for L=           1  read in
    real space projection operators read in
  non local Contribution for L=           2  read in
    real space projection operators read in
    PAW grid and wavefunctions read in
 
   number of l-projection  operators is LMAX  =           5
   number of lm-projection operators is LMMAX =          13
 
 POTCAR:    PAW_PBE V 08Apr2002                   
   VRHFIN =V: p6 d4 s1                                                          
   LEXCH  = PE                                                                  
   EATOM  =   170.8679 eV,   12.5584 Ry                                         
                                                                                
   TITEL  = PAW_PBE V 08Apr2002                                                 
   LULTRA =        F    use ultrasoft PP ?                                      
   IUNSCR =        1    unscreen: 0-lin 1-nonlin 2-no                           
   RPACOR =    2.000    partial core radius                                     
   POMASS =   50.941; ZVAL   =    5.000    mass and valenz                      
   RCORE  =    2.700    outmost cutoff radius                                   
   RWIGS  =    2.500; RWIGS  =    1.323    wigner-seitz radius (au A)           
   ENMAX  =  192.543; ENMIN  =  144.408 eV                                      
   RCLOC  =    1.779    cutoff for local pot                                    
   LCOR   =        T    correct aug charges                                     
   LPAW   =        T    paw PP                                                  
   EAUG   =  358.662                                                            
   DEXC   =    0.000                                                            
   RMAX   =    2.768    core radius for proj-oper                               
   RAUG   =    1.300    factor for augmentation sphere                          
   RDEP   =    2.762    radius for radial grids                                 
   RDEPT  =    2.240    core radius for aug-charge                              
                                                                                
   Atomic configuration                                                         
    9 entries                                                                   
     n  l   j            E        occ.                                          
     1  0  0.50     -5360.7193   2.0000                                         
     2  0  0.50      -598.4546   2.0000                                         
     2  1  1.50      -499.0155   6.0000                                         
     3  0  0.50       -66.5711   2.0000                                         
     3  1  1.50       -40.5282   6.0000                                         
     3  2  2.50        -2.4291   4.0000                                         
     4  0  0.50        -3.8743   1.0000                                         
     4  1  0.50        -2.7212   0.0000                                         
     4  3  2.50        -1.3606   0.0000                                         
   Description                                                                  
     l       E           TYP  RCUT    TYP  RCUT                                 
     2     -2.4290901     23  2.700                                             
     2     -3.7896727     23  2.700                                             
     0     -3.8742752     23  2.700                                             
     0     27.2116520     23  2.700                                             
     1     -2.7211652     23  2.700                                             
     1     27.2116520     23  2.700                                             
  local pseudopotential read in
  partial core-charges read in
  partial kinetic energy density read in
  atomic valenz-charges read in
  non local Contribution for L=           2  read in
    real space projection operators read in
  non local Contribution for L=           2  read in
    real space projection operators read in
  non local Contribution for L=           0  read in
    real space projection operators read in
  non local Contribution for L=           0  read in
    real space projection operators read in
  non local Contribution for L=           1  read in
    real space projection operators read in
  non local Contribution for L=           1  read in
    real space projection operators read in
    PAW grid and wavefunctions read in
 
   number of l-projection  operators is LMAX  =           6
   number of lm-projection operators is LMMAX =          18
 

 ----------------------------------------------------------------------------- 
|                                                                             |
|  ADVICE TO THIS USER RUNNING 'VASP/VAMP'   (HEAR YOUR MASTER'S VOICE ...):  |
|                                                                             |
|      You have a (more or less) 'small supercell' and for smaller cells      |
|      it is recommended  to use the reciprocal-space projection scheme!      |
|      The real space optimization is not  efficient for small cells and it   |
|      is also less accurate ...                                              |
|      Therefore set LREAL=.FALSE. in the  INCAR file                         |
|                                                                             |
 ----------------------------------------------------------------------------- 

 Optimization of the real space projectors (new method)

 maximal supplied QI-value         = 17.95
 optimisation between [QCUT,QGAM] = [ 10.23, 20.47] = [ 29.32,117.29] Ry 
 Optimized for a Real-space Cutoff    1.30 Angstroem

   l    n(q)    QCUT    max X(q) W(low)/X(q) W(high)/X(q)  e(spline) 
   0      8    10.233   133.320    0.21E-03    0.21E-03    0.47E-07
   0      8    10.233   111.601    0.22E-03    0.22E-03    0.49E-07
   1      7    10.233    47.222    0.18E-03    0.34E-03    0.82E-07
   1      7    10.233    33.775    0.18E-03    0.34E-03    0.79E-07
   2      7    10.233     3.720    0.23E-03    0.23E-03    0.57E-07
 Optimization of the real space projectors (new method)

 maximal supplied QI-value         = 13.98
 optimisation between [QCUT,QGAM] = [ 10.21, 20.42] = [ 29.18,116.73] Ry 
 Optimized for a Real-space Cutoff    1.60 Angstroem

   l    n(q)    QCUT    max X(q) W(low)/X(q) W(high)/X(q)  e(spline) 
   2      9    10.208    96.114    0.38E-03    0.52E-03    0.25E-06
   2      9    10.208    88.986    0.38E-03    0.52E-03    0.26E-06
   0     10    10.208    20.919    0.14E-03    0.29E-04    0.23E-06
   0     10    10.208     9.593    0.11E-03    0.21E-04    0.17E-06
   1      9    10.208    11.615    0.18E-03    0.30E-03    0.12E-06
   1      9    10.208     7.031    0.12E-03    0.21E-03    0.96E-07
  PAW_PBE Se 06Sep2000                  :
 energy of atom  1       EATOM= -257.1286
 kinetic energy error for atom=    0.0020 (will be added to EATOM!!)
  PAW_PBE V 08Apr2002                   :
 energy of atom  2       EATOM= -170.8679
 kinetic energy error for atom=    0.0010 (will be added to EATOM!!)
 
 
 POSCAR: Se  V                                   
  positions in direct lattice
  velocities in cartesian coordinates
 exchange correlation table for  LEXCH =        8
   RHO(1)=    0.500       N(1)  =     2000
   RHO(2)=  100.500       N(2)  =     4000
 


--------------------------------------------------------------------------------------------------------


 ion  position               nearest neighbor table
   1  0.667  0.333  0.111-   3 2.48   3 2.48   3 2.48
   2  0.333  0.667  0.248-   3 2.48   3 2.48   3 2.48
   3  1.000  0.000  0.180-   2 2.48   2 2.48   2 2.48   1 2.48   1 2.48   1 2.48
 

IMPORTANT INFORMATION: All symmetrisations will be switched off!
NOSYMM: (Re-)initialisation of all symmetry stuff for point group C_1.

 
 
 KPOINTS: dummy                                   

Automatic generation of k-mesh.
Space group operators:
 irot       det(A)        alpha          n_x          n_y          n_z        tau_x        tau_y        tau_z
    1     1.000000     0.000000     1.000000     0.000000     0.000000     0.000000     0.000000     0.000000
 
 Subroutine IBZKPT returns following result:
 ===========================================
 
 Found     81 irreducible k-points:
 
 Following reciprocal coordinates:
            Coordinates               Weight
  0.000000  0.000000  0.000000      1.000000
  0.111111  0.000000  0.000000      1.000000
  0.222222  0.000000  0.000000      1.000000
  0.333333  0.000000  0.000000      1.000000
  0.444444  0.000000  0.000000      1.000000
 -0.444444  0.000000  0.000000      1.000000
 -0.333333  0.000000  0.000000      1.000000
 -0.222222  0.000000  0.000000      1.000000
 -0.111111  0.000000  0.000000      1.000000
  0.000000  0.111111  0.000000      1.000000
  0.111111  0.111111  0.000000      1.000000
  0.222222  0.111111  0.000000      1.000000
  0.333333  0.111111  0.000000      1.000000
  0.444444  0.111111  0.000000      1.000000
 -0.444444  0.111111  0.000000      1.000000
 -0.333333  0.111111  0.000000      1.000000
 -0.222222  0.111111  0.000000      1.000000
 -0.111111  0.111111  0.000000      1.000000
  0.000000  0.222222  0.000000      1.000000
  0.111111  0.222222  0.000000      1.000000
  0.222222  0.222222  0.000000      1.000000
  0.333333  0.222222  0.000000      1.000000
  0.444444  0.222222  0.000000      1.000000
 -0.444444  0.222222  0.000000      1.000000
 -0.333333  0.222222  0.000000      1.000000
 -0.222222  0.222222  0.000000      1.000000
 -0.111111  0.222222  0.000000      1.000000
  0.000000  0.333333  0.000000      1.000000
  0.111111  0.333333  0.000000      1.000000
  0.222222  0.333333  0.000000      1.000000
  0.333333  0.333333  0.000000      1.000000
  0.444444  0.333333  0.000000      1.000000
 -0.444444  0.333333  0.000000      1.000000
 -0.333333  0.333333  0.000000      1.000000
 -0.222222  0.333333  0.000000      1.000000
 -0.111111  0.333333  0.000000      1.000000
  0.000000  0.444444  0.000000      1.000000
  0.111111  0.444444  0.000000      1.000000
  0.222222  0.444444  0.000000      1.000000
  0.333333  0.444444  0.000000      1.000000
  0.444444  0.444444  0.000000      1.000000
 -0.444444  0.444444  0.000000      1.000000
 -0.333333  0.444444  0.000000      1.000000
 -0.222222  0.444444  0.000000      1.000000
 -0.111111  0.444444  0.000000      1.000000
 -0.000000 -0.444444  0.000000      1.000000
  0.111111 -0.444444  0.000000      1.000000
  0.222222 -0.444444  0.000000      1.000000
  0.333333 -0.444444  0.000000      1.000000
  0.444444 -0.444444  0.000000      1.000000
 -0.444444 -0.444444  0.000000      1.000000
 -0.333333 -0.444444  0.000000      1.000000
 -0.222222 -0.444444  0.000000      1.000000
 -0.111111 -0.444444  0.000000      1.000000
  0.000000 -0.333333  0.000000      1.000000
  0.111111 -0.333333  0.000000      1.000000
  0.222222 -0.333333  0.000000      1.000000
  0.333333 -0.333333  0.000000      1.000000
  0.444444 -0.333333  0.000000      1.000000
 -0.444444 -0.333333  0.000000      1.000000
 -0.333333 -0.333333  0.000000      1.000000
 -0.222222 -0.333333  0.000000      1.000000
 -0.111111 -0.333333  0.000000      1.000000
 -0.000000 -0.222222  0.000000      1.000000
  0.111111 -0.222222  0.000000      1.000000
  0.222222 -0.222222  0.000000      1.000000
  0.333333 -0.222222  0.000000      1.000000
  0.444444 -0.222222  0.000000      1.000000
 -0.444444 -0.222222  0.000000      1.000000
 -0.333333 -0.222222  0.000000      1.000000
 -0.222222 -0.222222  0.000000      1.000000
 -0.111111 -0.222222  0.000000      1.000000
 -0.000000 -0.111111  0.000000      1.000000
  0.111111 -0.111111  0.000000      1.000000
  0.222222 -0.111111  0.000000      1.000000
  0.333333 -0.111111  0.000000      1.000000
  0.444444 -0.111111  0.000000      1.000000
 -0.444444 -0.111111  0.000000      1.000000
 -0.333333 -0.111111  0.000000      1.000000
 -0.222222 -0.111111  0.000000      1.000000
 -0.111111 -0.111111  0.000000      1.000000
 
 Following cartesian coordinates:
            Coordinates               Weight
  0.000000  0.000000  0.000000      1.000000
  0.038517  0.000000  0.000000      1.000000
  0.077034  0.000000  0.000000      1.000000
  0.115551  0.000000  0.000000      1.000000
  0.154068  0.000000  0.000000      1.000000
 -0.154068  0.000000  0.000000      1.000000
 -0.115551  0.000000  0.000000      1.000000
 -0.077034  0.000000  0.000000      1.000000
 -0.038517  0.000000  0.000000      1.000000
  0.019258  0.033357  0.000000      1.000000
  0.057775  0.033357  0.000000      1.000000
  0.096292  0.033357  0.000000      1.000000
  0.134809  0.033357  0.000000      1.000000
  0.173326  0.033357  0.000000      1.000000
 -0.134809  0.033357  0.000000      1.000000
 -0.096292  0.033357  0.000000      1.000000
 -0.057775  0.033357  0.000000      1.000000
 -0.019258  0.033357  0.000000      1.000000
  0.038517  0.066713  0.000000      1.000000
  0.077034  0.066713  0.000000      1.000000
  0.115551  0.066713  0.000000      1.000000
  0.154068  0.066713  0.000000      1.000000
  0.192585  0.066713  0.000000      1.000000
 -0.115551  0.066713  0.000000      1.000000
 -0.077034  0.066713  0.000000      1.000000
 -0.038517  0.066713  0.000000      1.000000
  0.000000  0.066713  0.000000      1.000000
  0.057775  0.100070  0.000000      1.000000
  0.096292  0.100070  0.000000      1.000000
  0.134809  0.100070  0.000000      1.000000
  0.173326  0.100070  0.000000      1.000000
  0.211843  0.100070  0.000000      1.000000
 -0.096292  0.100070  0.000000      1.000000
 -0.057775  0.100070  0.000000      1.000000
 -0.019258  0.100070  0.000000      1.000000
  0.019258  0.100070  0.000000      1.000000
  0.077034  0.133427  0.000000      1.000000
  0.115551  0.133427  0.000000      1.000000
  0.154068  0.133427  0.000000      1.000000
  0.192585  0.133427  0.000000      1.000000
  0.231102  0.133427  0.000000      1.000000
 -0.077034  0.133427  0.000000      1.000000
 -0.038517  0.133427  0.000000      1.000000
  0.000000  0.133427  0.000000      1.000000
  0.038517  0.133427  0.000000      1.000000
 -0.077034 -0.133427  0.000000      1.000000
 -0.038517 -0.133427  0.000000      1.000000
  0.000000 -0.133427  0.000000      1.000000
  0.038517 -0.133427  0.000000      1.000000
  0.077034 -0.133427  0.000000      1.000000
 -0.231102 -0.133427  0.000000      1.000000
 -0.192585 -0.133427  0.000000      1.000000
 -0.154068 -0.133427  0.000000      1.000000
 -0.115551 -0.133427  0.000000      1.000000
 -0.057775 -0.100070  0.000000      1.000000
 -0.019258 -0.100070  0.000000      1.000000
  0.019258 -0.100070  0.000000      1.000000
  0.057775 -0.100070  0.000000      1.000000
  0.096292 -0.100070  0.000000      1.000000
 -0.211843 -0.100070  0.000000      1.000000
 -0.173326 -0.100070  0.000000      1.000000
 -0.134809 -0.100070  0.000000      1.000000
 -0.096292 -0.100070  0.000000      1.000000
 -0.038517 -0.066713  0.000000      1.000000
 -0.000000 -0.066713  0.000000      1.000000
  0.038517 -0.066713  0.000000      1.000000
  0.077034 -0.066713  0.000000      1.000000
  0.115551 -0.066713  0.000000      1.000000
 -0.192585 -0.066713  0.000000      1.000000
 -0.154068 -0.066713  0.000000      1.000000
 -0.115551 -0.066713  0.000000      1.000000
 -0.077034 -0.066713  0.000000      1.000000
 -0.019258 -0.033357  0.000000      1.000000
  0.019258 -0.033357  0.000000      1.000000
  0.057775 -0.033357  0.000000      1.000000
  0.096292 -0.033357  0.000000      1.000000
  0.134809 -0.033357  0.000000      1.000000
 -0.173326 -0.033357  0.000000      1.000000
 -0.134809 -0.033357  0.000000      1.000000
 -0.096292 -0.033357  0.000000      1.000000
 -0.057775 -0.033357  0.000000      1.000000
 


--------------------------------------------------------------------------------------------------------




 Dimension of arrays:
   k-points           NKPTS =     81   k-points in BZ     NKDIM =     81   number of bands    NBANDS=     28
   number of dos      NEDOS =  10000   number of ions     NIONS =      3
   non local maximal  LDIM  =      6   non local SUM 2l+1 LMDIM =     18
   total plane-waves  NPLWV =  30720
   max r-space proj   IRMAX =   2470   max aug-charges    IRDMAX=   8747
   dimension x,y,z NGX =    16 NGY =   16 NGZ =  120
   dimension x,y,z NGXF=    32 NGYF=   32 NGZF=  240
   support grid    NGXF=    32 NGYF=   32 NGZF=  240
   ions per type =               2   1
   NGX,Y,Z   is equivalent  to a cutoff of   8.04,  8.04,  8.67 a.u.
   NGXF,Y,Z  is equivalent  to a cutoff of  16.08, 16.08, 17.35 a.u.

 SYSTEM =  /home/chen747/Work/Work2020/VSe2/1x1/a  
 POSCAR =  Se  V                                   

 Startparameter for this run:
   NWRITE =      2    write-flag & timer
   PREC   = normal    normal or accurate (medium, high low for compatibility)
   ISTART =      0    job   : 0-new  1-cont  2-samecut
   ICHARG =      2    charge: 1-file 2-atom 10-const
   ISPIN  =      1    spin polarized calculation?
   LNONCOLLINEAR =      T non collinear calculations
   LSORBIT =      T    spin-orbit coupling
   INIWAV =      1    electr: 0-lowe 1-rand  2-diag
   LASPH  =      F    aspherical Exc in radial PAW
   METAGGA=      F    non-selfconsistent MetaGGA calc.

 Electronic Relaxation 1
   ENCUT  =  400.0 eV  29.40 Ry    5.42 a.u.   5.39  5.39 37.51*2*pi/ulx,y,z
   ENINI  =  400.0     initial cutoff
   ENAUG  =  446.8 eV  augmentation charge cutoff
   NELM   =    300;   NELMIN=  4; NELMDL= -5     # of ELM steps 
   EDIFF  = 0.1E-04   stopping-criterion for ELM
   LREAL  =      T    real-space projection
   NLSPLINE    = F    spline interpolate recip. space projectors
   LCOMPAT=      F    compatible to vasp.4.4
   GGA_COMPAT  = T    GGA compatible to vasp.4.4-vasp.4.6
   LMAXPAW     = -100 max onsite density
   LMAXMIX     =    2 max onsite mixed and CHGCAR
   VOSKOWN=      0    Vosko Wilk Nusair interpolation
   ROPT   =   -0.00050  -0.00050
 Ionic relaxation
   EDIFFG = -.1E-01   stopping-criterion for IOM
   NSW    =      0    number of steps for IOM
   NBLOCK =      1;   KBLOCK =      1    inner block; outer block 
   IBRION =     -1    ionic relax: 0-MD 1-quasi-New 2-CG
   NFREE  =      0    steps in history (QN), initial steepest desc. (CG)
   ISIF   =      2    stress and relaxation
   IWAVPR =     10    prediction:  0-non 1-charg 2-wave 3-comb
   ISYM   =      0    0-nonsym 1-usesym 2-fastsym
   LCORR  =      T    Harris-Foulkes like correction to forces

   POTIM  = 0.5000    time-step for ionic-motion
   TEIN   =    0.0    initial temperature
   TEBEG  =    0.0;   TEEND  =   0.0 temperature during run
   SMASS  =  -3.00    Nose mass-parameter (am)
   estimated Nose-frequenzy (Omega)   =  0.10E-29 period in steps =****** mass=  -0.250E-27a.u.
   SCALEE = 1.0000    scale energy and forces
   NPACO  =    256;   APACO  = 16.0  distance and # of slots for P.C.
   PSTRESS=    0.0 pullay stress

  Mass of Ions in am
   POMASS =  78.96 50.94
  Ionic Valenz
   ZVAL   =   6.00  5.00
  Atomic Wigner-Seitz radii
   RWIGS  =  -1.00 -1.00
  virtual crystal weights 
   VCA    =   1.00  1.00
   NELECT =      17.0000    total number of electrons
   NUPDOWN=      -1.0000    fix difference up-down

 DOS related values:
   EMIN   = -30.00;   EMAX   = 45.00  energy-range for DOS
   EFERMI =   0.00
   ISMEAR =     0;   SIGMA  =   0.05  broadening in eV -4-tet -1-fermi 0-gaus

 Electronic relaxation 2 (details)
   IALGO  =     38    algorithm
   LDIAG  =      T    sub-space diagonalisation (order eigenvalues)
   LSUBROT=      F    optimize rotation matrix (better conditioning)
   TURBO    =      0    0=normal 1=particle mesh
   IRESTART =      0    0=no restart 2=restart with 2 vectors
   NREBOOT  =      0    no. of reboots
   NMIN     =      0    reboot dimension
   EREF     =   0.00    reference energy to select bands
   IMIX   =      4    mixing-type and parameters
     AMIX     =   0.40;   BMIX     =  1.00
     AMIX_MAG =   1.60;   BMIX_MAG =  1.00
     AMIN     =   0.10
     WC   =   100.;   INIMIX=   1;  MIXPRE=   1;  MAXMIX= -45

 Intra band minimization:
   WEIMIN = 0.0000     energy-eigenvalue tresh-hold
   EBREAK =  0.89E-07  absolut break condition
   DEPER  =   0.30     relativ break condition  

   TIME   =   0.40     timestep for ELM

  volume/ion in A,a.u.               =      72.65       490.25
  Fermi-wavevector in a.u.,A,eV,Ry     =   0.699483  1.321832  6.657018  0.489277
  Thomas-Fermi vector in A             =   1.783375
 
 Write flags
   LWAVE        =      T    write WAVECAR
   LDOWNSAMPLE  =      F    k-point downsampling of WAVECAR
   LCHARG       =      T    write CHGCAR
   LVTOT        =      F    write LOCPOT, total local potential
   LVHAR        =      F    write LOCPOT, Hartree potential only
   LELF         =      F    write electronic localiz. function (ELF)
   LORBIT       =     11    0 simple, 1 ext, 2 COOP (PROOUT), +10 PAW based schemes


 Dipole corrections
   LMONO  =      F    monopole corrections only (constant potential shift)
   LDIPOL =      F    correct potential (dipole corrections)
   IDIPOL =      0    1-x, 2-y, 3-z, 4-all directions 
   EPSILON=  1.0000000 bulk dielectric constant

 Exchange correlation treatment:
   GGA     =    --    GGA type
   LEXCH   =     8    internal setting for exchange type
   VOSKOWN=      0    Vosko Wilk Nusair interpolation
   LHFCALC =     F    Hartree Fock is set to
   LHFONE  =     F    Hartree Fock one center treatment
   AEXX    =    0.0000 exact exchange contribution

 Linear response parameters
   LEPSILON=     F    determine dielectric tensor
   LRPA    =     F    only Hartree local field effects (RPA)
   LNABLA  =     F    use nabla operator in PAW spheres
   LVEL    =     F    velocity operator in full k-point grid
   LINTERFAST=   F  fast interpolation
   KINTER  =     0    interpolate to denser k-point grid
   CSHIFT  =0.1000    complex shift for real part using Kramers Kronig
   OMEGAMAX=  -1.0    maximum frequency
   DEG_THRESHOLD= 0.2000000E-02 threshold for treating states as degnerate
   RTIME   =   -0.100 relaxation time in fs
  (WPLASMAI=    0.000 imaginary part of plasma frequency in eV, 0.658/RTIME)
   DFIELD  = 0.0000000 0.0000000 0.0000000 field for delta impulse in time
 
 Orbital magnetization related:
   ORBITALMAG=     F  switch on orbital magnetization
   LCHIMAG   =     F  perturbation theory with respect to B field
   DQ        =  0.001000  dq finite difference perturbation B field
   LLRAUG    =     F  two centre corrections for induced B field



--------------------------------------------------------------------------------------------------------


 Static calculation
 charge density and potential will be updated during run
 non collinear spin polarized calculation
 Variant of blocked Davidson
 Davidson routine will perform the subspace rotation
 perform sub-space diagonalisation
    after iterative eigenvector-optimisation
 modified Broyden-mixing scheme, WC =      100.0
 initial mixing is a Kerker type mixing with AMIX =  0.4000 and BMIX =      1.0000
 Hartree-type preconditioning will be used
 using additional bands           19
 real space projection scheme for non local part
 use partial core corrections
 calculate Harris-corrections to forces 
   (improved forces if not selfconsistent)
 use gradient corrections 
 use of overlap-Matrix (Vanderbilt PP)
 Gauss-broadening in eV      SIGMA  =   0.05


--------------------------------------------------------------------------------------------------------


  energy-cutoff  :      400.00
  volume of cell :      217.94
      direct lattice vectors                 reciprocal lattice vectors
     2.864537506 -1.653841500  0.000000000     0.349096494  0.000000000  0.000000000
     0.000000000  3.307683000  0.000000000     0.174548247  0.302326432  0.000000000
     0.000000000  0.000000000 23.001852000     0.000000000  0.000000000  0.043474760

  length of vectors
     3.307683000  3.307683000 23.001852000     0.349096494  0.349096494  0.043474760


 
 k-points in units of 2pi/SCALE and weight: dummy                                   
   0.00000000  0.00000000  0.00000000       0.012
   0.03851698  0.00000000  0.00000000       0.012
   0.07703396  0.00000000  0.00000000       0.012
   0.11555094  0.00000000  0.00000000       0.012
   0.15406792  0.00000000  0.00000000       0.012
  -0.15406792  0.00000000  0.00000000       0.012
  -0.11555094  0.00000000  0.00000000       0.012
  -0.07703396  0.00000000  0.00000000       0.012
  -0.03851698  0.00000000  0.00000000       0.012
   0.01925849  0.03335668  0.00000000       0.012
   0.05777547  0.03335668  0.00000000       0.012
   0.09629245  0.03335668  0.00000000       0.012
   0.13480943  0.03335668  0.00000000       0.012
   0.17332641  0.03335668  0.00000000       0.012
  -0.13480943  0.03335668  0.00000000       0.012
  -0.09629245  0.03335668  0.00000000       0.012
  -0.05777547  0.03335668  0.00000000       0.012
  -0.01925849  0.03335668  0.00000000       0.012
   0.03851698  0.06671337  0.00000000       0.012
   0.07703396  0.06671337  0.00000000       0.012
   0.11555094  0.06671337  0.00000000       0.012
   0.15406792  0.06671337  0.00000000       0.012
   0.19258490  0.06671337  0.00000000       0.012
  -0.11555094  0.06671337  0.00000000       0.012
  -0.07703396  0.06671337  0.00000000       0.012
  -0.03851698  0.06671337  0.00000000       0.012
   0.00000000  0.06671337  0.00000000       0.012
   0.05777547  0.10007005  0.00000000       0.012
   0.09629245  0.10007005  0.00000000       0.012
   0.13480943  0.10007005  0.00000000       0.012
   0.17332641  0.10007005  0.00000000       0.012
   0.21184339  0.10007005  0.00000000       0.012
  -0.09629245  0.10007005  0.00000000       0.012
  -0.05777547  0.10007005  0.00000000       0.012
  -0.01925849  0.10007005  0.00000000       0.012
   0.01925849  0.10007005  0.00000000       0.012
   0.07703396  0.13342673  0.00000000       0.012
   0.11555094  0.13342673  0.00000000       0.012
   0.15406792  0.13342673  0.00000000       0.012
   0.19258490  0.13342673  0.00000000       0.012
   0.23110188  0.13342673  0.00000000       0.012
  -0.07703396  0.13342673  0.00000000       0.012
  -0.03851698  0.13342673  0.00000000       0.012
   0.00000000  0.13342673  0.00000000       0.012
   0.03851698  0.13342673  0.00000000       0.012
  -0.07703396 -0.13342673  0.00000000       0.012
  -0.03851698 -0.13342673  0.00000000       0.012
   0.00000000 -0.13342673  0.00000000       0.012
   0.03851698 -0.13342673  0.00000000       0.012
   0.07703396 -0.13342673  0.00000000       0.012
  -0.23110188 -0.13342673  0.00000000       0.012
  -0.19258490 -0.13342673  0.00000000       0.012
  -0.15406792 -0.13342673  0.00000000       0.012
  -0.11555094 -0.13342673  0.00000000       0.012
  -0.05777547 -0.10007005  0.00000000       0.012
  -0.01925849 -0.10007005  0.00000000       0.012
   0.01925849 -0.10007005  0.00000000       0.012
   0.05777547 -0.10007005  0.00000000       0.012
   0.09629245 -0.10007005  0.00000000       0.012
  -0.21184339 -0.10007005  0.00000000       0.012
  -0.17332641 -0.10007005  0.00000000       0.012
  -0.13480943 -0.10007005  0.00000000       0.012
  -0.09629245 -0.10007005  0.00000000       0.012
  -0.03851698 -0.06671337  0.00000000       0.012
  -0.00000000 -0.06671337  0.00000000       0.012
   0.03851698 -0.06671337  0.00000000       0.012
   0.07703396 -0.06671337  0.00000000       0.012
   0.11555094 -0.06671337  0.00000000       0.012
  -0.19258490 -0.06671337  0.00000000       0.012
  -0.15406792 -0.06671337  0.00000000       0.012
  -0.11555094 -0.06671337  0.00000000       0.012
  -0.07703396 -0.06671337  0.00000000       0.012
  -0.01925849 -0.03335668  0.00000000       0.012
   0.01925849 -0.03335668  0.00000000       0.012
   0.05777547 -0.03335668  0.00000000       0.012
   0.09629245 -0.03335668  0.00000000       0.012
   0.13480943 -0.03335668  0.00000000       0.012
  -0.17332641 -0.03335668  0.00000000       0.012
  -0.13480943 -0.03335668  0.00000000       0.012
  -0.09629245 -0.03335668  0.00000000       0.012
  -0.05777547 -0.03335668  0.00000000       0.012
 
 k-points in reciprocal lattice and weights: dummy                                   
   0.00000000  0.00000000  0.00000000       0.012
   0.11111111  0.00000000  0.00000000       0.012
   0.22222222  0.00000000  0.00000000       0.012
   0.33333333  0.00000000  0.00000000       0.012
   0.44444444  0.00000000  0.00000000       0.012
  -0.44444444  0.00000000  0.00000000       0.012
  -0.33333333  0.00000000  0.00000000       0.012
  -0.22222222  0.00000000  0.00000000       0.012
  -0.11111111  0.00000000  0.00000000       0.012
   0.00000000  0.11111111  0.00000000       0.012
   0.11111111  0.11111111  0.00000000       0.012
   0.22222222  0.11111111  0.00000000       0.012
   0.33333333  0.11111111  0.00000000       0.012
   0.44444444  0.11111111  0.00000000       0.012
  -0.44444444  0.11111111  0.00000000       0.012
  -0.33333333  0.11111111  0.00000000       0.012
  -0.22222222  0.11111111  0.00000000       0.012
  -0.11111111  0.11111111  0.00000000       0.012
   0.00000000  0.22222222  0.00000000       0.012
   0.11111111  0.22222222  0.00000000       0.012
   0.22222222  0.22222222  0.00000000       0.012
   0.33333333  0.22222222  0.00000000       0.012
   0.44444444  0.22222222  0.00000000       0.012
  -0.44444444  0.22222222  0.00000000       0.012
  -0.33333333  0.22222222  0.00000000       0.012
  -0.22222222  0.22222222  0.00000000       0.012
  -0.11111111  0.22222222  0.00000000       0.012
   0.00000000  0.33333333  0.00000000       0.012
   0.11111111  0.33333333  0.00000000       0.012
   0.22222222  0.33333333  0.00000000       0.012
   0.33333333  0.33333333  0.00000000       0.012
   0.44444444  0.33333333  0.00000000       0.012
  -0.44444444  0.33333333  0.00000000       0.012
  -0.33333333  0.33333333  0.00000000       0.012
  -0.22222222  0.33333333  0.00000000       0.012
  -0.11111111  0.33333333  0.00000000       0.012
   0.00000000  0.44444444  0.00000000       0.012
   0.11111111  0.44444444  0.00000000       0.012
   0.22222222  0.44444444  0.00000000       0.012
   0.33333333  0.44444444  0.00000000       0.012
   0.44444444  0.44444444  0.00000000       0.012
  -0.44444444  0.44444444  0.00000000       0.012
  -0.33333333  0.44444444  0.00000000       0.012
  -0.22222222  0.44444444  0.00000000       0.012
  -0.11111111  0.44444444  0.00000000       0.012
  -0.00000000 -0.44444444  0.00000000       0.012
   0.11111111 -0.44444444  0.00000000       0.012
   0.22222222 -0.44444444  0.00000000       0.012
   0.33333333 -0.44444444  0.00000000       0.012
   0.44444444 -0.44444444  0.00000000       0.012
  -0.44444444 -0.44444444  0.00000000       0.012
  -0.33333333 -0.44444444  0.00000000       0.012
  -0.22222222 -0.44444444  0.00000000       0.012
  -0.11111111 -0.44444444  0.00000000       0.012
   0.00000000 -0.33333333  0.00000000       0.012
   0.11111111 -0.33333333  0.00000000       0.012
   0.22222222 -0.33333333  0.00000000       0.012
   0.33333333 -0.33333333  0.00000000       0.012
   0.44444444 -0.33333333  0.00000000       0.012
  -0.44444444 -0.33333333  0.00000000       0.012
  -0.33333333 -0.33333333  0.00000000       0.012
  -0.22222222 -0.33333333  0.00000000       0.012
  -0.11111111 -0.33333333  0.00000000       0.012
  -0.00000000 -0.22222222  0.00000000       0.012
   0.11111111 -0.22222222  0.00000000       0.012
   0.22222222 -0.22222222  0.00000000       0.012
   0.33333333 -0.22222222  0.00000000       0.012
   0.44444444 -0.22222222  0.00000000       0.012
  -0.44444444 -0.22222222  0.00000000       0.012
  -0.33333333 -0.22222222  0.00000000       0.012
  -0.22222222 -0.22222222  0.00000000       0.012
  -0.11111111 -0.22222222  0.00000000       0.012
  -0.00000000 -0.11111111  0.00000000       0.012
   0.11111111 -0.11111111  0.00000000       0.012
   0.22222222 -0.11111111  0.00000000       0.012
   0.33333333 -0.11111111  0.00000000       0.012
   0.44444444 -0.11111111  0.00000000       0.012
  -0.44444444 -0.11111111  0.00000000       0.012
  -0.33333333 -0.11111111  0.00000000       0.012
  -0.22222222 -0.11111111  0.00000000       0.012
  -0.11111111 -0.11111111  0.00000000       0.012
 
 position of ions in fractional coordinates (direct lattice) 
   0.66666672  0.33333328  0.11129274
   0.33333329  0.66666671  0.24847440
   0.99999999  0.00000000  0.17989594
 
 position of ions in cartesian coordinates  (Angst):
   1.90969182 -0.00000025  2.55993910
   0.95484571  1.65384173  5.71537148
   2.86453749 -1.65384148  4.13793974
 
 Euler angles ALPHA=     0.0000000  BETA=     0.0000000

 transformation matrix from SAXIS to cartesian coordinates
 ---------------------------------------------------------
     1.0000000 m_x     0.0000000 m_y     0.0000000 m_z
     0.0000000 m_x     1.0000000 m_y     0.0000000 m_z
     0.0000000 m_x     0.0000000 m_y     1.0000000 m_z

 transformation matrix from cartesian coordinates to SAXIS
 ---------------------------------------------------------
     1.0000000 m_x     0.0000000 m_y     0.0000000 m_z
     0.0000000 m_x     1.0000000 m_y     0.0000000 m_z
     0.0000000 m_x     0.0000000 m_y     1.0000000 m_z




--------------------------------------------------------------------------------------------------------


 k-point  1 :   0.0000 0.0000 0.0000  plane waves:    8022
 k-point  2 :   0.1111 0.0000 0.0000  plane waves:    8018
 k-point  3 :   0.2222 0.0000 0.0000  plane waves:    7962
 k-point  4 :   0.3333 0.0000 0.0000  plane waves:    7912
 k-point  5 :   0.4444 0.0000 0.0000  plane waves:    7864
 k-point  6 :  -0.4444 0.0000 0.0000  plane waves:    7864
 k-point  7 :  -0.3333 0.0000 0.0000  plane waves:    7912
 k-point  8 :  -0.2222 0.0000 0.0000  plane waves:    7962
 k-point  9 :  -0.1111 0.0000 0.0000  plane waves:    8018
 k-point 10 :   0.0000 0.1111 0.0000  plane waves:    8018
 k-point 11 :   0.1111 0.1111 0.0000  plane waves:    7966
 k-point 12 :   0.2222 0.1111 0.0000  plane waves:    7952
 k-point 13 :   0.3333 0.1111 0.0000  plane waves:    7884
 k-point 14 :   0.4444 0.1111 0.0000  plane waves:    7876
 k-point 15 :  -0.4444 0.1111 0.0000  plane waves:    7884
 k-point 16 :  -0.3333 0.1111 0.0000  plane waves:    7952
 k-point 17 :  -0.2222 0.1111 0.0000  plane waves:    7966
 k-point 18 :  -0.1111 0.1111 0.0000  plane waves:    8018
 k-point 19 :   0.0000 0.2222 0.0000  plane waves:    7962
 k-point 20 :   0.1111 0.2222 0.0000  plane waves:    7952
 k-point 21 :   0.2222 0.2222 0.0000  plane waves:    7906
 k-point 22 :   0.3333 0.2222 0.0000  plane waves:    7918
 k-point 23 :   0.4444 0.2222 0.0000  plane waves:    7918
 k-point 24 :  -0.4444 0.2222 0.0000  plane waves:    7906
 k-point 25 :  -0.3333 0.2222 0.0000  plane waves:    7952
 k-point 26 :  -0.2222 0.2222 0.0000  plane waves:    7962
 k-point 27 :  -0.1111 0.2222 0.0000  plane waves:    7966
 k-point 28 :   0.0000 0.3333 0.0000  plane waves:    7912
 k-point 29 :   0.1111 0.3333 0.0000  plane waves:    7884
 k-point 30 :   0.2222 0.3333 0.0000  plane waves:    7918
 k-point 31 :   0.3333 0.3333 0.0000  plane waves:    7872
 k-point 32 :   0.4444 0.3333 0.0000  plane waves:    7918
 k-point 33 :  -0.4444 0.3333 0.0000  plane waves:    7884
 k-point 34 :  -0.3333 0.3333 0.0000  plane waves:    7912
 k-point 35 :  -0.2222 0.3333 0.0000  plane waves:    7952
 k-point 36 :  -0.1111 0.3333 0.0000  plane waves:    7952
 k-point 37 :   0.0000 0.4444 0.0000  plane waves:    7864
 k-point 38 :   0.1111 0.4444 0.0000  plane waves:    7876
 k-point 39 :   0.2222 0.4444 0.0000  plane waves:    7918
 k-point 40 :   0.3333 0.4444 0.0000  plane waves:    7918
 k-point 41 :   0.4444 0.4444 0.0000  plane waves:    7876
 k-point 42 :  -0.4444 0.4444 0.0000  plane waves:    7864
 k-point 43 :  -0.3333 0.4444 0.0000  plane waves:    7884
 k-point 44 :  -0.2222 0.4444 0.0000  plane waves:    7906
 k-point 45 :  -0.1111 0.4444 0.0000  plane waves:    7884
 k-point 46 :  -0.0000-0.4444 0.0000  plane waves:    7864
 k-point 47 :   0.1111-0.4444 0.0000  plane waves:    7884
 k-point 48 :   0.2222-0.4444 0.0000  plane waves:    7906
 k-point 49 :   0.3333-0.4444 0.0000  plane waves:    7884
 k-point 50 :   0.4444-0.4444 0.0000  plane waves:    7864
 k-point 51 :  -0.4444-0.4444 0.0000  plane waves:    7876
 k-point 52 :  -0.3333-0.4444 0.0000  plane waves:    7918
 k-point 53 :  -0.2222-0.4444 0.0000  plane waves:    7918
 k-point 54 :  -0.1111-0.4444 0.0000  plane waves:    7876
 k-point 55 :   0.0000-0.3333 0.0000  plane waves:    7912
 k-point 56 :   0.1111-0.3333 0.0000  plane waves:    7952
 k-point 57 :   0.2222-0.3333 0.0000  plane waves:    7952
 k-point 58 :   0.3333-0.3333 0.0000  plane waves:    7912
 k-point 59 :   0.4444-0.3333 0.0000  plane waves:    7884
 k-point 60 :  -0.4444-0.3333 0.0000  plane waves:    7918
 k-point 61 :  -0.3333-0.3333 0.0000  plane waves:    7872
 k-point 62 :  -0.2222-0.3333 0.0000  plane waves:    7918
 k-point 63 :  -0.1111-0.3333 0.0000  plane waves:    7884
 k-point 64 :  -0.0000-0.2222 0.0000  plane waves:    7962
 k-point 65 :   0.1111-0.2222 0.0000  plane waves:    7966
 k-point 66 :   0.2222-0.2222 0.0000  plane waves:    7962
 k-point 67 :   0.3333-0.2222 0.0000  plane waves:    7952
 k-point 68 :   0.4444-0.2222 0.0000  plane waves:    7906
 k-point 69 :  -0.4444-0.2222 0.0000  plane waves:    7918
 k-point 70 :  -0.3333-0.2222 0.0000  plane waves:    7918
 k-point 71 :  -0.2222-0.2222 0.0000  plane waves:    7906
 k-point 72 :  -0.1111-0.2222 0.0000  plane waves:    7952
 k-point 73 :  -0.0000-0.1111 0.0000  plane waves:    8018
 k-point 74 :   0.1111-0.1111 0.0000  plane waves:    8018
 k-point 75 :   0.2222-0.1111 0.0000  plane waves:    7966
 k-point 76 :   0.3333-0.1111 0.0000  plane waves:    7952
 k-point 77 :   0.4444-0.1111 0.0000  plane waves:    7884
 k-point 78 :  -0.4444-0.1111 0.0000  plane waves:    7876
 k-point 79 :  -0.3333-0.1111 0.0000  plane waves:    7884
 k-point 80 :  -0.2222-0.1111 0.0000  plane waves:    7952
 k-point 81 :  -0.1111-0.1111 0.0000  plane waves:    7966

 maximum and minimum number of plane-waves per node :      1042      946

 maximum number of plane-waves:      8022
 maximum index in each direction: 
   IXMAX=    5   IYMAX=    5   IZMAX=   37
   IXMIN=   -5   IYMIN=   -5   IZMIN=  -37


 real space projection operators:
  total allocation   :        585.80 KBytes
  max/ min on nodes  :         73.94         71.97


 parallel 3D FFT for wavefunctions:
    minimum data exchange during FFTs selected (reduces bandwidth)
 parallel 3D FFT for charge:
    minimum data exchange during FFTs selected (reduces bandwidth)


 total amount of memory used by VASP MPI-rank0    43155. kBytes
=======================================================================

   base      :      30000. kBytes
   nonlr-proj:        213. kBytes
   fftplans  :        676. kBytes
   grid      :       2334. kBytes
   one-center:         62. kBytes
   wavefun   :       9870. kBytes
 
     INWAV:  cpu time    0.0001: real time    0.0005
 Broyden mixing: mesh for mixing (old mesh)
   NGX = 11   NGY = 11   NGZ = 75
  (NGX  = 32   NGY  = 32   NGZ  =240)
  gives a total of   9075 points

 initial charge density was supplied:
 charge density of overlapping atoms calculated
 number of electron      17.0000000 magnetization       0.0000000      0.0000000      1.0000000
 keeping initial charge density in first step


--------------------------------------------------------------------------------------------------------


 Maximum index for non-local projection operator          270
 Maximum index for augmentation-charges          461 (set IRDMAX)


--------------------------------------------------------------------------------------------------------


 First call to EWALD:  gamma=   0.295
 Maximum number of real-space cells 5x 5x 1
 Maximum number of reciprocal cells 2x 2x 9

    FEWALD:  cpu time    0.0018: real time    0.0034


--------------------------------------- Iteration      1(   1)  ---------------------------------------


    POTLOK:  cpu time    0.0756: real time    0.1440
    SETDIJ:  cpu time    0.0919: real time    0.1153
     EDDAV:  cpu time    2.1242: real time    2.2990
       DOS:  cpu time    0.0079: real time    0.0308
    --------------------------------------------
      LOOP:  cpu time    2.2997: real time    2.5892

 eigenvalue-minimisations  :  4620
 total energy-change (2. order) : 0.1486235E+03  (-0.4366662E+03)
 number of electron      17.0000000 magnetization       0.0000000      0.0000000      1.0000000
 augmentation part       17.0000000 magnetization       0.0000000      0.0000000      1.0000000

 Free energy of the ion-electron system (eV)
  ---------------------------------------------------
  alpha Z        PSCENC =        13.90262175
  Ewald energy   TEWEN  =      2599.03967714
  -Hartree energ DENC   =     -3204.96222045
  -exchange      EXHF   =         0.00000000
  -V(xc)+E(xc)   XCENC  =       -47.16984843
  PAW double counting   =       626.75501439     -549.91990434
  entropy T*S    EENTRO =        -0.00393443
  eigenvalues    EBANDS =        25.86199973
  atomic energy  EATOM  =       685.12008660
  Solvation  Ediel_sol  =         0.00000000
  ---------------------------------------------------
  free energy    TOTEN  =       148.62349197 eV

  energy without entropy =      148.62742640  energy(sigma->0) =      148.62545918


--------------------------------------------------------------------------------------------------------




--------------------------------------- Iteration      1(   2)  ---------------------------------------


     EDDAV:  cpu time    2.2714: real time    2.2763
       DOS:  cpu time    0.0071: real time    0.0071
    --------------------------------------------
      LOOP:  cpu time    2.2785: real time    2.2834

 eigenvalue-minimisations  :  5160
 total energy-change (2. order) :-0.1378043E+03  (-0.1263548E+03)
 number of electron      17.0000000 magnetization       0.0000000      0.0000000      1.0000000
 augmentation part       17.0000000 magnetization       0.0000000      0.0000000      1.0000000

 Free energy of the ion-electron system (eV)
  ---------------------------------------------------
  alpha Z        PSCENC =        13.90262175
  Ewald energy   TEWEN  =      2599.03967714
  -Hartree energ DENC   =     -3204.96222045
  -exchange      EXHF   =         0.00000000
  -V(xc)+E(xc)   XCENC  =       -47.16984843
  PAW double counting   =       626.75501439     -549.91990434
  entropy T*S    EENTRO =        -0.00240254
  eigenvalues    EBANDS =      -111.94385573
  atomic energy  EATOM  =       685.12008660
  Solvation  Ediel_sol  =         0.00000000
  ---------------------------------------------------
  free energy    TOTEN  =        10.81916840 eV

  energy without entropy =       10.82157094  energy(sigma->0) =       10.82036967


--------------------------------------------------------------------------------------------------------




--------------------------------------- Iteration      1(   3)  ---------------------------------------


     EDDAV:  cpu time    2.7637: real time    2.7720
       DOS:  cpu time    0.0070: real time    0.0071
    --------------------------------------------
      LOOP:  cpu time    2.7708: real time    2.7790

 eigenvalue-minimisations  :  6800
 total energy-change (2. order) :-0.2965959E+02  (-0.2844139E+02)
 number of electron      17.0000000 magnetization       0.0000000      0.0000000      1.0000000
 augmentation part       17.0000000 magnetization       0.0000000      0.0000000      1.0000000

 Free energy of the ion-electron system (eV)
  ---------------------------------------------------
  alpha Z        PSCENC =        13.90262175
  Ewald energy   TEWEN  =      2599.03967714
  -Hartree energ DENC   =     -3204.96222045
  -exchange      EXHF   =         0.00000000
  -V(xc)+E(xc)   XCENC  =       -47.16984843
  PAW double counting   =       626.75501439     -549.91990434
  entropy T*S    EENTRO =        -0.00260658
  eigenvalues    EBANDS =      -141.60323706
  atomic energy  EATOM  =       685.12008660
  Solvation  Ediel_sol  =         0.00000000
  ---------------------------------------------------
  free energy    TOTEN  =       -18.84041697 eV

  energy without entropy =      -18.83781039  energy(sigma->0) =      -18.83911368


--------------------------------------------------------------------------------------------------------




--------------------------------------- Iteration      1(   4)  ---------------------------------------


     EDDAV:  cpu time    2.7370: real time    2.7437
       DOS:  cpu time    0.0070: real time    0.0078
    --------------------------------------------
      LOOP:  cpu time    2.7440: real time    2.7515

 eigenvalue-minimisations  :  6680
 total energy-change (2. order) :-0.1900494E+01  (-0.1841316E+01)
 number of electron      17.0000000 magnetization       0.0000000      0.0000000      1.0000000
 augmentation part       17.0000000 magnetization       0.0000000      0.0000000      1.0000000

 Free energy of the ion-electron system (eV)
  ---------------------------------------------------
  alpha Z        PSCENC =        13.90262175
  Ewald energy   TEWEN  =      2599.03967714
  -Hartree energ DENC   =     -3204.96222045
  -exchange      EXHF   =         0.00000000
  -V(xc)+E(xc)   XCENC  =       -47.16984843
  PAW double counting   =       626.75501439     -549.91990434
  entropy T*S    EENTRO =        -0.00336167
  eigenvalues    EBANDS =      -143.50297580
  atomic energy  EATOM  =       685.12008660
  Solvation  Ediel_sol  =         0.00000000
  ---------------------------------------------------
  free energy    TOTEN  =       -20.74091080 eV

  energy without entropy =      -20.73754913  energy(sigma->0) =      -20.73922996


--------------------------------------------------------------------------------------------------------




--------------------------------------- Iteration      1(   5)  ---------------------------------------


     EDDAV:  cpu time    2.7030: real time    2.7102
       DOS:  cpu time    0.0070: real time    0.0070
 


 total charge     
 
# of ion       s       p       d       tot
------------------------------------------
    1        1.502   2.735   0.062   4.299
    2        1.502   2.735   0.062   4.299
    3        0.437   0.699   2.346   3.483
--------------------------------------------------
tot          3.442   6.169   2.470  12.081
 


 magnetization (x)
 
# of ion       s       p       d       tot
------------------------------------------
    1       -0.000  -0.000  -0.000  -0.000
    2       -0.000   0.000  -0.000   0.000
    3        0.000  -0.000   0.000   0.000
--------------------------------------------------
tot         -0.000   0.000   0.000   0.000
 


 magnetization (y)
 
# of ion       s       p       d       tot
------------------------------------------
    1       -0.000  -0.000  -0.000  -0.000
    2        0.000   0.000  -0.000   0.000
    3       -0.000  -0.000  -0.000  -0.000
--------------------------------------------------
tot         -0.000   0.000  -0.000  -0.000
 


 magnetization (z)
 
# of ion       s       p       d       tot
------------------------------------------
    1       -0.001  -0.022   0.007  -0.016
    2       -0.001  -0.022   0.007  -0.016
    3        0.010   0.013   0.405   0.428
--------------------------------------------------
tot          0.008  -0.031   0.419   0.396
 
    CHARGE:  cpu time    0.0981: real time    0.1605
    MIXING:  cpu time    0.0025: real time    0.0311
    --------------------------------------------
      LOOP:  cpu time    2.8106: real time    2.9089

 eigenvalue-minimisations  :  6636
 total energy-change (2. order) :-0.4210523E-01  (-0.4155769E-01)
 number of electron      17.0000012 magnetization       0.0000080     -0.0000028      0.9390706
 augmentation part       -1.4984314 magnetization      -0.0001253      0.0000171      0.7271838

 Broyden mixing:
  rms(total) = 0.16104E+01    rms(broyden)= 0.16104E+01
  rms(prec ) = 0.16864E+01
  weight for this iteration     100.00

 Free energy of the ion-electron system (eV)
  ---------------------------------------------------
  alpha Z        PSCENC =        13.90262175
  Ewald energy   TEWEN  =      2599.03967714
  -Hartree energ DENC   =     -3204.96222045
  -exchange      EXHF   =         0.00000000
  -V(xc)+E(xc)   XCENC  =       -47.16984843
  PAW double counting   =       626.75501439     -549.91990434
  entropy T*S    EENTRO =        -0.00338495
  eigenvalues    EBANDS =      -143.54505775
  atomic energy  EATOM  =       685.12008660
  Solvation  Ediel_sol  =         0.00000000
  ---------------------------------------------------
  free energy    TOTEN  =       -20.78301603 eV

  energy without entropy =      -20.77963108  energy(sigma->0) =      -20.78132355


--------------------------------------------------------------------------------------------------------




--------------------------------------- Iteration      1(   6)  ---------------------------------------


    POTLOK:  cpu time    0.0392: real time    0.0417
    SETDIJ:  cpu time    0.0110: real time    0.0110
     EDDAV:  cpu time    2.7362: real time    2.7414
       DOS:  cpu time    0.0071: real time    0.0071
    CHARGE:  cpu time    0.0782: real time    0.0784
    MIXING:  cpu time    0.0015: real time    0.0035
    --------------------------------------------
      LOOP:  cpu time    2.8732: real time    2.8831

 eigenvalue-minimisations  :  6756
 total energy-change (2. order) :-0.2741035E+01  (-0.1607712E+01)
 number of electron      17.0000013 magnetization       0.0000410     -0.0000047      0.9141674
 augmentation part        2.4369297 magnetization      -0.0004935     -0.0000776      0.8077792

 Broyden mixing:
  rms(total) = 0.22559E+01    rms(broyden)= 0.22559E+01
  rms(prec ) = 0.25698E+01
  weight for this iteration     100.00

 eigenvalues of (default mixing * dielectric matrix)
  average eigenvalue GAMMA=   0.3991
  0.3991

 Free energy of the ion-electron system (eV)
  ---------------------------------------------------
  alpha Z        PSCENC =        13.90262175
  Ewald energy   TEWEN  =      2599.03967714
  -Hartree energ DENC   =     -3195.83257405
  -exchange      EXHF   =         0.00000000
  -V(xc)+E(xc)   XCENC  =       -46.44122346
  PAW double counting   =       786.41933824     -708.44486513
  entropy T*S    EENTRO =        -0.00235994
  eigenvalues    EBANDS =      -157.28475258
  atomic energy  EATOM  =       685.12008660
  Solvation  Ediel_sol  =         0.00000000
  ---------------------------------------------------
  free energy    TOTEN  =       -23.52405142 eV

  energy without entropy =      -23.52169148  energy(sigma->0) =      -23.52287145


--------------------------------------------------------------------------------------------------------




--------------------------------------- Iteration      1(   7)  ---------------------------------------


    POTLOK:  cpu time    0.0389: real time    0.0411
    SETDIJ:  cpu time    0.0109: real time    0.0109
     EDDAV:  cpu time    2.5799: real time    2.5826
       DOS:  cpu time    0.0071: real time    0.0071
    CHARGE:  cpu time    0.0739: real time    0.0740
    MIXING:  cpu time    0.0014: real time    0.0014
    --------------------------------------------
      LOOP:  cpu time    2.7121: real time    2.7172

 eigenvalue-minimisations  :  6180
 total energy-change (2. order) : 0.4547240E+01  (-0.2353208E+01)
 number of electron      17.0000011 magnetization       0.0000521     -0.0000350      0.8435362
 augmentation part       -1.1598033 magnetization       0.0001044     -0.0002141      0.6084402

 Broyden mixing:
  rms(total) = 0.86814E+00    rms(broyden)= 0.86812E+00
  rms(prec ) = 0.94690E+00
  weight for this iteration     100.00

 eigenvalues of (default mixing * dielectric matrix)
  average eigenvalue GAMMA=   0.8353
  1.3959  0.2746

 Free energy of the ion-electron system (eV)
  ---------------------------------------------------
  alpha Z        PSCENC =        13.90262175
  Ewald energy   TEWEN  =      2599.03967714
  -Hartree energ DENC   =     -3209.87783103
  -exchange      EXHF   =         0.00000000
  -V(xc)+E(xc)   XCENC  =       -46.93801405
  PAW double counting   =       828.94803202     -752.75607539
  entropy T*S    EENTRO =        -0.00178475
  eigenvalues    EBANDS =      -136.41352392
  atomic energy  EATOM  =       685.12008660
  Solvation  Ediel_sol  =         0.00000000
  ---------------------------------------------------
  free energy    TOTEN  =       -18.97681161 eV

  energy without entropy =      -18.97502686  energy(sigma->0) =      -18.97591923


--------------------------------------------------------------------------------------------------------




--------------------------------------- Iteration      1(   8)  ---------------------------------------


    POTLOK:  cpu time    0.0390: real time    0.0415
    SETDIJ:  cpu time    0.0109: real time    0.0109
     EDDAV:  cpu time    2.6003: real time    2.6051
       DOS:  cpu time    0.0070: real time    0.0070
    CHARGE:  cpu time    0.0798: real time    0.0799
    MIXING:  cpu time    0.0014: real time    0.0014
    --------------------------------------------
      LOOP:  cpu time    2.7384: real time    2.7458

 eigenvalue-minimisations  :  6324
 total energy-change (2. order) : 0.7336369E+00  (-0.4621043E+00)
 number of electron      17.0000012 magnetization       0.0000574     -0.0000494      0.8132004
 augmentation part       -0.9191551 magnetization       0.0001515     -0.0000504      0.6005451

 Broyden mixing:
  rms(total) = 0.47403E+00    rms(broyden)= 0.47402E+00
  rms(prec ) = 0.52164E+00
  weight for this iteration     100.00

 eigenvalues of (default mixing * dielectric matrix)
  average eigenvalue GAMMA=   0.8363
  1.5433  0.2921  0.6735

 Free energy of the ion-electron system (eV)
  ---------------------------------------------------
  alpha Z        PSCENC =        13.90262175
  Ewald energy   TEWEN  =      2599.03967714
  -Hartree energ DENC   =     -3207.53797368
  -exchange      EXHF   =         0.00000000
  -V(xc)+E(xc)   XCENC  =       -46.57817682
  PAW double counting   =      1023.95250326     -947.91914285
  entropy T*S    EENTRO =        -0.00175021
  eigenvalues    EBANDS =      -138.22101987
  atomic energy  EATOM  =       685.12008660
  Solvation  Ediel_sol  =         0.00000000
  ---------------------------------------------------
  free energy    TOTEN  =       -18.24317466 eV

  energy without entropy =      -18.24142445  energy(sigma->0) =      -18.24229955


--------------------------------------------------------------------------------------------------------




--------------------------------------- Iteration      1(   9)  ---------------------------------------


    POTLOK:  cpu time    0.0408: real time    0.0412
    SETDIJ:  cpu time    0.0108: real time    0.0108
     EDDAV:  cpu time    2.7944: real time    2.7995
       DOS:  cpu time    0.0070: real time    0.0070
    CHARGE:  cpu time    0.0759: real time    0.0759
    MIXING:  cpu time    0.0017: real time    0.0017
    --------------------------------------------
      LOOP:  cpu time    2.9306: real time    2.9362

 eigenvalue-minimisations  :  6956
 total energy-change (2. order) : 0.3170749E+00  (-0.2040383E-01)
 number of electron      17.0000012 magnetization       0.0000626     -0.0000769      0.7797464
 augmentation part       -0.6969935 magnetization       0.0000707      0.0000039      0.5898945

 Broyden mixing:
  rms(total) = 0.29568E+00    rms(broyden)= 0.29568E+00
  rms(prec ) = 0.31854E+00
  weight for this iteration     100.00

 eigenvalues of (default mixing * dielectric matrix)
  average eigenvalue GAMMA=   0.8375
  0.2860  1.1614  1.1614  0.7411

 Free energy of the ion-electron system (eV)
  ---------------------------------------------------
  alpha Z        PSCENC =        13.90262175
  Ewald energy   TEWEN  =      2599.03967714
  -Hartree energ DENC   =     -3208.86427429
  -exchange      EXHF   =         0.00000000
  -V(xc)+E(xc)   XCENC  =       -46.46216534
  PAW double counting   =      1029.26859693     -953.15063374
  entropy T*S    EENTRO =        -0.00150844
  eigenvalues    EBANDS =      -136.77850034
  atomic energy  EATOM  =       685.12008660
  Solvation  Ediel_sol  =         0.00000000
  ---------------------------------------------------
  free energy    TOTEN  =       -17.92609972 eV

  energy without entropy =      -17.92459128  energy(sigma->0) =      -17.92534550


--------------------------------------------------------------------------------------------------------




--------------------------------------- Iteration      1(  10)  ---------------------------------------


    POTLOK:  cpu time    0.0404: real time    0.0406
    SETDIJ:  cpu time    0.0108: real time    0.0108
     EDDAV:  cpu time    2.7828: real time    2.7836
       DOS:  cpu time    0.0070: real time    0.0070
 


 total charge     
 
# of ion       s       p       d       tot
------------------------------------------
    1        1.484   2.366   0.051   3.901
    2        1.484   2.367   0.051   3.901
    3        0.438   0.693   3.376   4.507
--------------------------------------------------
tot          3.406   5.426   3.478  12.309
 


 magnetization (x)
 
# of ion       s       p       d       tot
------------------------------------------
    1        0.000   0.000   0.000   0.000
    2        0.000   0.000  -0.000   0.000
    3       -0.000   0.000   0.000   0.000
--------------------------------------------------
tot          0.000   0.000   0.000   0.000
 


 magnetization (y)
 
# of ion       s       p       d       tot
------------------------------------------
    1        0.000   0.000   0.000   0.000
    2       -0.000   0.000   0.000   0.000
    3       -0.000   0.000  -0.000  -0.000
--------------------------------------------------
tot          0.000   0.000  -0.000  -0.000
 


 magnetization (z)
 
# of ion       s       p       d       tot
------------------------------------------
    1       -0.003  -0.026   0.003  -0.025
    2       -0.003  -0.026   0.003  -0.026
    3        0.006   0.007   0.494   0.507
--------------------------------------------------
tot          0.001  -0.045   0.500   0.456
 
    CHARGE:  cpu time    0.0822: real time    0.0822
    MIXING:  cpu time    0.0018: real time    0.0018
    --------------------------------------------
      LOOP:  cpu time    2.9251: real time    2.9260

 eigenvalue-minimisations  :  6916
 total energy-change (2. order) : 0.8006070E-01  (-0.7375610E-02)
 number of electron      17.0000012 magnetization       0.0000958     -0.0001029      0.6827334
 augmentation part       -0.5510894 magnetization       0.0000026     -0.0001431      0.5094416

 Broyden mixing:
  rms(total) = 0.16753E+00    rms(broyden)= 0.16753E+00
  rms(prec ) = 0.17741E+00
  weight for this iteration     100.00

 eigenvalues of (default mixing * dielectric matrix)
  average eigenvalue GAMMA=   1.2705
  2.3597  2.3597  0.2872  0.6729  0.6729

 Free energy of the ion-electron system (eV)
  ---------------------------------------------------
  alpha Z        PSCENC =        13.90262175
  Ewald energy   TEWEN  =      2599.03967714
  -Hartree energ DENC   =     -3210.86473856
  -exchange      EXHF   =         0.00000000
  -V(xc)+E(xc)   XCENC  =       -46.40084304
  PAW double counting   =      1000.00379993     -923.75548510
  entropy T*S    EENTRO =        -0.00186169
  eigenvalues    EBANDS =      -134.88929606
  atomic energy  EATOM  =       685.12008660
  Solvation  Ediel_sol  =         0.00000000
  ---------------------------------------------------
  free energy    TOTEN  =       -17.84603902 eV

  energy without entropy =      -17.84417733  energy(sigma->0) =      -17.84510817


--------------------------------------------------------------------------------------------------------




--------------------------------------- Iteration      1(  11)  ---------------------------------------


    POTLOK:  cpu time    0.0387: real time    0.0411
    SETDIJ:  cpu time    0.0101: real time    0.0101
     EDDAV:  cpu time    2.6722: real time    2.6725
       DOS:  cpu time    0.0071: real time    0.0071
    CHARGE:  cpu time    0.0771: real time    0.0771
    MIXING:  cpu time    0.0023: real time    0.0023
    --------------------------------------------
      LOOP:  cpu time    2.8075: real time    2.8101

 eigenvalue-minimisations  :  6500
 total energy-change (2. order) :-0.5569905E-01  (-0.2871370E-01)
 number of electron      17.0000012 magnetization       0.0000838     -0.0001205      0.6771478
 augmentation part       -0.2408425 magnetization       0.0001054      0.0000673      0.5154776

 Broyden mixing:
  rms(total) = 0.17247E+00    rms(broyden)= 0.17247E+00
  rms(prec ) = 0.18748E+00
  weight for this iteration     100.00

 eigenvalues of (default mixing * dielectric matrix)
  average eigenvalue GAMMA=   1.2323
  2.4983  2.4983  0.2873  0.7888  0.7888  0.5323

 Free energy of the ion-electron system (eV)
  ---------------------------------------------------
  alpha Z        PSCENC =        13.90262175
  Ewald energy   TEWEN  =      2599.03967714
  -Hartree energ DENC   =     -3215.94645951
  -exchange      EXHF   =         0.00000000
  -V(xc)+E(xc)   XCENC  =       -46.25180347
  PAW double counting   =       963.36092667     -886.87881727
  entropy T*S    EENTRO =        -0.00101740
  eigenvalues    EBANDS =      -130.24695259
  atomic energy  EATOM  =       685.12008660
  Solvation  Ediel_sol  =         0.00000000
  ---------------------------------------------------
  free energy    TOTEN  =       -17.90173806 eV

  energy without entropy =      -17.90072067  energy(sigma->0) =      -17.90122937


--------------------------------------------------------------------------------------------------------




--------------------------------------- Iteration      1(  12)  ---------------------------------------


    POTLOK:  cpu time    0.0396: real time    0.0409
    SETDIJ:  cpu time    0.0102: real time    0.0102
     EDDAV:  cpu time    2.7640: real time    2.7649
       DOS:  cpu time    0.0071: real time    0.0071
    CHARGE:  cpu time    0.0770: real time    0.0770
    MIXING:  cpu time    0.0025: real time    0.0025
    --------------------------------------------
      LOOP:  cpu time    2.9004: real time    2.9025

 eigenvalue-minimisations  :  6812
 total energy-change (2. order) :-0.9685551E-02  (-0.2752107E-02)
 number of electron      17.0000012 magnetization       0.0000777     -0.0001082      0.6716072
 augmentation part       -0.3109534 magnetization       0.0000595     -0.0002010      0.5146912

 Broyden mixing:
  rms(total) = 0.10970E+00    rms(broyden)= 0.10970E+00
  rms(prec ) = 0.11817E+00
  weight for this iteration     100.00

 eigenvalues of (default mixing * dielectric matrix)
  average eigenvalue GAMMA=   1.1671
  2.4782  2.4782  0.9029  0.9029  0.2872  0.5603  0.5603

 Free energy of the ion-electron system (eV)
  ---------------------------------------------------
  alpha Z        PSCENC =        13.90262175
  Ewald energy   TEWEN  =      2599.03967714
  -Hartree energ DENC   =     -3215.93129099
  -exchange      EXHF   =         0.00000000
  -V(xc)+E(xc)   XCENC  =       -46.27485483
  PAW double counting   =       985.56633836     -909.17666662
  entropy T*S    EENTRO =        -0.00105664
  eigenvalues    EBANDS =      -130.15627840
  atomic energy  EATOM  =       685.12008660
  Solvation  Ediel_sol  =         0.00000000
  ---------------------------------------------------
  free energy    TOTEN  =       -17.91142362 eV

  energy without entropy =      -17.91036697  energy(sigma->0) =      -17.91089529


--------------------------------------------------------------------------------------------------------




--------------------------------------- Iteration      1(  13)  ---------------------------------------


    POTLOK:  cpu time    0.0383: real time    0.0408
    SETDIJ:  cpu time    0.0101: real time    0.0101
     EDDAV:  cpu time    2.6538: real time    2.6541
       DOS:  cpu time    0.0070: real time    0.0070
    CHARGE:  cpu time    0.0759: real time    0.0759
    MIXING:  cpu time    0.0025: real time    0.0025
    --------------------------------------------
      LOOP:  cpu time    2.7877: real time    2.7904

 eigenvalue-minimisations  :  6488
 total energy-change (2. order) :-0.1411282E-01  (-0.5853611E-03)
 number of electron      17.0000012 magnetization       0.0000579     -0.0001456      0.6686450
 augmentation part       -0.3419954 magnetization       0.0001240      0.0001461      0.5136134

 Broyden mixing:
  rms(total) = 0.76740E-01    rms(broyden)= 0.76740E-01
  rms(prec ) = 0.82953E-01
  weight for this iteration     100.00

 eigenvalues of (default mixing * dielectric matrix)
  average eigenvalue GAMMA=   1.1451
  2.6228  1.6349  1.3877  1.3877  0.2872  0.6435  0.6435  0.5534

 Free energy of the ion-electron system (eV)
  ---------------------------------------------------
  alpha Z        PSCENC =        13.90262175
  Ewald energy   TEWEN  =      2599.03967714
  -Hartree energ DENC   =     -3215.87605508
  -exchange      EXHF   =         0.00000000
  -V(xc)+E(xc)   XCENC  =       -46.28924302
  PAW double counting   =      1003.39430367     -927.05288369
  entropy T*S    EENTRO =        -0.00109593
  eigenvalues    EBANDS =      -130.16294789
  atomic energy  EATOM  =       685.12008660
  Solvation  Ediel_sol  =         0.00000000
  ---------------------------------------------------
  free energy    TOTEN  =       -17.92553644 eV

  energy without entropy =      -17.92444051  energy(sigma->0) =      -17.92498847


--------------------------------------------------------------------------------------------------------




--------------------------------------- Iteration      1(  14)  ---------------------------------------


    POTLOK:  cpu time    0.0386: real time    0.0407
    SETDIJ:  cpu time    0.0101: real time    0.0101
     EDDAV:  cpu time    2.6465: real time    2.6471
       DOS:  cpu time    0.0071: real time    0.0071
    CHARGE:  cpu time    0.0762: real time    0.0762
    MIXING:  cpu time    0.0028: real time    0.0028
    --------------------------------------------
      LOOP:  cpu time    2.7813: real time    2.7840

 eigenvalue-minimisations  :  6476
 total energy-change (2. order) :-0.2803609E-01  (-0.1535248E-02)
 number of electron      17.0000012 magnetization       0.0000648     -0.0001092      0.6643009
 augmentation part       -0.4036225 magnetization      -0.0001027     -0.0004289      0.5076210

 Broyden mixing:
  rms(total) = 0.19281E-01    rms(broyden)= 0.19281E-01
  rms(prec ) = 0.20562E-01
  weight for this iteration     100.00

 eigenvalues of (default mixing * dielectric matrix)
  average eigenvalue GAMMA=   1.1574
  2.4876  2.0547  2.0547  0.9953  0.2872  0.7520  0.7520  0.5860  0.4473

 Free energy of the ion-electron system (eV)
  ---------------------------------------------------
  alpha Z        PSCENC =        13.90262175
  Ewald energy   TEWEN  =      2599.03967714
  -Hartree energ DENC   =     -3215.53287455
  -exchange      EXHF   =         0.00000000
  -V(xc)+E(xc)   XCENC  =       -46.33187659
  PAW double counting   =      1026.45147667     -950.18061456
  entropy T*S    EENTRO =        -0.00122699
  eigenvalues    EBANDS =      -130.42084201
  atomic energy  EATOM  =       685.12008660
  Solvation  Ediel_sol  =         0.00000000
  ---------------------------------------------------
  free energy    TOTEN  =       -17.95357253 eV

  energy without entropy =      -17.95234554  energy(sigma->0) =      -17.95295903


--------------------------------------------------------------------------------------------------------




--------------------------------------- Iteration      1(  15)  ---------------------------------------


    POTLOK:  cpu time    0.0383: real time    0.0409
    SETDIJ:  cpu time    0.0101: real time    0.0101
     EDDAV:  cpu time    2.6464: real time    2.6467
       DOS:  cpu time    0.0070: real time    0.0070
 


 total charge     
 
# of ion       s       p       d       tot
------------------------------------------
    1        1.482   2.325   0.050   3.856
    2        1.482   2.325   0.050   3.857
    3        0.434   0.686   3.495   4.616
--------------------------------------------------
tot          3.398   5.336   3.595  12.329
 


 magnetization (x)
 
# of ion       s       p       d       tot
------------------------------------------
    1       -0.000  -0.000   0.000  -0.000
    2        0.000   0.000  -0.000   0.000
    3        0.000   0.000   0.000   0.000
--------------------------------------------------
tot          0.000   0.000   0.000   0.000
 


 magnetization (y)
 
# of ion       s       p       d       tot
------------------------------------------
    1        0.000   0.000  -0.000   0.000
    2        0.000   0.000  -0.000   0.000
    3       -0.000  -0.000   0.000  -0.000
--------------------------------------------------
tot          0.000   0.000  -0.000   0.000
 


 magnetization (z)
 
# of ion       s       p       d       tot
------------------------------------------
    1       -0.002  -0.038   0.003  -0.037
    2       -0.002  -0.039   0.003  -0.038
    3        0.008   0.007   0.628   0.644
--------------------------------------------------
tot          0.004  -0.070   0.635   0.569
 
    CHARGE:  cpu time    0.0798: real time    0.0799
    MIXING:  cpu time    0.0030: real time    0.0030
    --------------------------------------------
      LOOP:  cpu time    2.7847: real time    2.7876

 eigenvalue-minimisations  :  6464
 total energy-change (2. order) :-0.2460118E-01  (-0.7597823E-03)
 number of electron      17.0000012 magnetization       0.0000587     -0.0001185      0.6595021
 augmentation part       -0.4318235 magnetization       0.0002106      0.0001832      0.5017197

 Broyden mixing:
  rms(total) = 0.17470E-01    rms(broyden)= 0.17469E-01
  rms(prec ) = 0.18679E-01
  weight for this iteration     100.00

 eigenvalues of (default mixing * dielectric matrix)
  average eigenvalue GAMMA=   1.1225
  2.1963  2.1963  1.6062  1.6062  0.9007  0.9007  0.2872  0.5862  0.5471  0.3986

 Free energy of the ion-electron system (eV)
  ---------------------------------------------------
  alpha Z        PSCENC =        13.90262175
  Ewald energy   TEWEN  =      2599.03967714
  -Hartree energ DENC   =     -3215.47815117
  -exchange      EXHF   =         0.00000000
  -V(xc)+E(xc)   XCENC  =       -46.36025826
  PAW double counting   =      1034.20365263     -957.95662363
  entropy T*S    EENTRO =        -0.00133292
  eigenvalues    EBANDS =      -130.44784587
  atomic energy  EATOM  =       685.12008660
  Solvation  Ediel_sol  =         0.00000000
  ---------------------------------------------------
  free energy    TOTEN  =       -17.97817371 eV

  energy without entropy =      -17.97684079  energy(sigma->0) =      -17.97750725


--------------------------------------------------------------------------------------------------------




--------------------------------------- Iteration      1(  16)  ---------------------------------------


    POTLOK:  cpu time    0.0382: real time    0.0410
    SETDIJ:  cpu time    0.0101: real time    0.0101
     EDDAV:  cpu time    2.1871: real time    2.1876
       DOS:  cpu time    0.0071: real time    0.0071
    CHARGE:  cpu time    0.0758: real time    0.0758
    MIXING:  cpu time    0.0034: real time    0.0034
    --------------------------------------------
      LOOP:  cpu time    2.3218: real time    2.3251

 eigenvalue-minimisations  :  4936
 total energy-change (2. order) :-0.1288323E-01  (-0.2681896E-03)
 number of electron      17.0000012 magnetization       0.0001070     -0.0000764      0.6476069
 augmentation part       -0.4340161 magnetization      -0.0002191     -0.0002792      0.4901242

 Broyden mixing:
  rms(total) = 0.17815E-01    rms(broyden)= 0.17815E-01
  rms(prec ) = 0.19255E-01
  weight for this iteration     100.00

 eigenvalues of (default mixing * dielectric matrix)
  average eigenvalue GAMMA=   1.1066
  2.3460  2.3460  1.5417  1.5417  0.9839  0.9839  0.2872  0.6201  0.6201  0.5558
  0.3461

 Free energy of the ion-electron system (eV)
  ---------------------------------------------------
  alpha Z        PSCENC =        13.90262175
  Ewald energy   TEWEN  =      2599.03967714
  -Hartree energ DENC   =     -3215.60326228
  -exchange      EXHF   =         0.00000000
  -V(xc)+E(xc)   XCENC  =       -46.37314299
  PAW double counting   =      1032.77104107     -956.52036454
  entropy T*S    EENTRO =        -0.00135921
  eigenvalues    EBANDS =      -130.32635449
  atomic energy  EATOM  =       685.12008660
  Solvation  Ediel_sol  =         0.00000000
  ---------------------------------------------------
  free energy    TOTEN  =       -17.99105694 eV

  energy without entropy =      -17.98969773  energy(sigma->0) =      -17.99037733


--------------------------------------------------------------------------------------------------------




--------------------------------------- Iteration      1(  17)  ---------------------------------------


    POTLOK:  cpu time    0.0384: real time    0.0405
    SETDIJ:  cpu time    0.0101: real time    0.0101
     EDDAV:  cpu time    2.1681: real time    2.1686
       DOS:  cpu time    0.0070: real time    0.0070
    CHARGE:  cpu time    0.0759: real time    0.0759
    MIXING:  cpu time    0.0036: real time    0.0036
    --------------------------------------------
      LOOP:  cpu time    2.3031: real time    2.3057

 eigenvalue-minimisations  :  4880
 total energy-change (2. order) :-0.1796051E-01  (-0.3412512E-03)
 number of electron      17.0000012 magnetization       0.0001228     -0.0000105      0.6279833
 augmentation part       -0.4277940 magnetization       0.0003234     -0.0001689      0.4715350

 Broyden mixing:
  rms(total) = 0.12442E-01    rms(broyden)= 0.12442E-01
  rms(prec ) = 0.13279E-01
  weight for this iteration     100.00

 eigenvalues of (default mixing * dielectric matrix)
  average eigenvalue GAMMA=   1.2065
  2.7737  2.7737  1.7367  1.7367  1.4598  0.8642  0.8642  0.2872  0.6245  0.5426
  0.4787  0.3364

 Free energy of the ion-electron system (eV)
  ---------------------------------------------------
  alpha Z        PSCENC =        13.90262175
  Ewald energy   TEWEN  =      2599.03967714
  -Hartree energ DENC   =     -3215.95340766
  -exchange      EXHF   =         0.00000000
  -V(xc)+E(xc)   XCENC  =       -46.38459833
  PAW double counting   =      1030.46265541     -954.20476350
  entropy T*S    EENTRO =        -0.00133499
  eigenvalues    EBANDS =      -129.98995389
  atomic energy  EATOM  =       685.12008660
  Solvation  Ediel_sol  =         0.00000000
  ---------------------------------------------------
  free energy    TOTEN  =       -18.00901745 eV

  energy without entropy =      -18.00768246  energy(sigma->0) =      -18.00834995


--------------------------------------------------------------------------------------------------------




[...]
 30.895   0.000  35.158   0.000   0.000   0.000   0.071   0.000  -0.000   0.000   0.000   0.000   0.102   0.000  -0.000   0.000
 35.158   0.000  40.013   0.000   0.000   0.000   0.081   0.000  -0.000   0.000   0.000   0.000   0.116   0.000  -0.000   0.000
  0.000   0.000   0.000   0.000   7.232   0.000  -0.000   0.000   0.000  -0.122  10.197   0.000  -0.000   0.000   0.000  -0.178
  0.071   0.000   0.081   0.000  -0.000   0.000   7.225   0.000   0.000   0.000  -0.000   0.000  10.187   0.000   0.000   0.000
 -0.000   0.000  -0.000   0.000   0.000   0.122   0.000   0.000   7.232   0.000   0.000   0.178   0.000   0.000  10.197   0.000
  0.000   0.000   0.000   0.000  10.197   0.000  -0.000   0.000   0.000  -0.178  14.412   0.000  -0.000   0.000   0.000  -0.259
  0.102   0.000   0.116   0.000  -0.000   0.000  10.187   0.000   0.000   0.000  -0.000   0.000  14.397   0.000   0.000   0.000
 -0.000   0.000  -0.000   0.000   0.000   0.178   0.000   0.000  10.197   0.000   0.000   0.259   0.000   0.000  14.412   0.000
  0.000   0.000   0.000   0.000   0.001   0.000   0.000   0.000   0.000   0.000   0.001   0.000   0.000   0.000   0.000   0.000
 -0.000   0.000  -0.000   0.000   0.021   0.000   0.000   0.000   0.000   0.000   0.029   0.000   0.000   0.000   0.000   0.000
 -0.007   0.000  -0.008   0.000   0.000   0.000   0.024   0.000  -0.000   0.000   0.000   0.000   0.033   0.000  -0.000   0.000
  0.000   0.000   0.000   0.000   0.000   0.000  -0.000   0.000   0.021   0.000   0.000   0.000  -0.000   0.000   0.029   0.000
 -0.000   0.000  -0.000   0.000  -0.000   0.000   0.000   0.000  -0.001   0.000  -0.000   0.000   0.000   0.000  -0.001   0.000
 total augmentation occupancy for first ion, spin component:           1
  5.831  -3.062  -0.000   1.755   0.000   0.000  -0.376  -0.000  -0.000   0.000  -0.018   0.000  -0.000
 -3.062   2.379   0.000  -1.624  -0.000  -0.000   0.291   0.000   0.000  -0.000   0.020  -0.000   0.000
 -0.000   0.000   2.379  -0.000  -0.000  -0.424   0.000   0.000   0.042   0.146   0.000  -0.000   0.000
  1.755  -1.624  -0.000   2.604  -0.000   0.000  -0.451  -0.000  -0.000  -0.000   0.095   0.000   0.000
  0.000  -0.000  -0.000  -0.000   2.379   0.000   0.000  -0.424  -0.000  -0.000  -0.000   0.146  -0.042
  0.000  -0.000  -0.424   0.000   0.000   0.104  -0.000  -0.000  -0.004  -0.023  -0.000   0.000  -0.000
 -0.376   0.291   0.000  -0.451   0.000  -0.000   0.100   0.000   0.000   0.000  -0.025  -0.000  -0.000
 -0.000   0.000   0.000  -0.000  -0.424  -0.000   0.000   0.104   0.000   0.000   0.000  -0.023   0.004
 -0.000   0.000   0.042  -0.000  -0.000  -0.004   0.000   0.000   0.017  -0.001   0.000  -0.000   0.000
  0.000  -0.000   0.146  -0.000  -0.000  -0.023   0.000   0.000  -0.001   0.014  -0.000  -0.000   0.000
 -0.018   0.020   0.000   0.095  -0.000  -0.000  -0.025   0.000   0.000  -0.000   0.017   0.000   0.000
  0.000  -0.000  -0.000   0.000   0.146   0.000  -0.000  -0.023  -0.000  -0.000   0.000   0.014   0.001
 -0.000   0.000   0.000   0.000  -0.042  -0.000  -0.000   0.004   0.000   0.000   0.000   0.001   0.017
 total augmentation occupancy for first ion, spin component:           2
 -0.000   0.000   0.000   0.000  -0.003  -0.000  -0.000   0.002   0.000   0.000   0.000  -0.000  -0.000
  0.000   0.000  -0.000  -0.000   0.004   0.000   0.000  -0.002  -0.000  -0.000  -0.000   0.000   0.000
  0.000  -0.000  -0.000   0.000   0.000   0.000  -0.000  -0.000  -0.000   0.000  -0.000  -0.000  -0.000
  0.000  -0.000   0.000  -0.000  -0.003  -0.000   0.000  -0.001  -0.000  -0.000  -0.000  -0.000  -0.000
 -0.003   0.004   0.000  -0.003  -0.000  -0.000   0.002   0.000   0.000  -0.000   0.001  -0.000   0.000
 -0.000   0.000   0.000  -0.000  -0.000  -0.000   0.000   0.000  -0.000  -0.000   0.000   0.000   0.000
 -0.000   0.000  -0.000   0.000   0.002   0.000  -0.000   0.000   0.000   0.000   0.000   0.000   0.000
  0.002  -0.002  -0.000  -0.001   0.000   0.000   0.000  -0.000  -0.000   0.000  -0.001   0.000  -0.000
  0.000  -0.000  -0.000  -0.000   0.000  -0.000   0.000  -0.000   0.000  -0.000  -0.000   0.000   0.000
  0.000  -0.000   0.000  -0.000  -0.000  -0.000   0.000   0.000  -0.000   0.000  -0.000  -0.000   0.000
  0.000  -0.000  -0.000  -0.000   0.001   0.000   0.000  -0.001  -0.000  -0.000  -0.000   0.000  -0.000
 -0.000   0.000  -0.000  -0.000  -0.000   0.000   0.000   0.000   0.000  -0.000   0.000  -0.000   0.000
 -0.000   0.000  -0.000  -0.000   0.000   0.000   0.000  -0.000   0.000   0.000  -0.000   0.000  -0.000
 total augmentation occupancy for first ion, spin component:           3
  0.001  -0.000  -0.003   0.000  -0.000   0.002  -0.000   0.000   0.000  -0.000   0.000  -0.000   0.000
 -0.000   0.000   0.004  -0.000   0.000  -0.002   0.000  -0.000  -0.000   0.000  -0.000   0.000  -0.000
 -0.003   0.004  -0.000  -0.003   0.000   0.000   0.002  -0.000  -0.000   0.000   0.001   0.000  -0.000
  0.000  -0.000  -0.003   0.000   0.000  -0.001  -0.000  -0.000   0.000  -0.000  -0.000  -0.000  -0.000
 -0.000   0.000   0.000   0.000   0.000  -0.000  -0.000  -0.000   0.000   0.000   0.000   0.000  -0.000
  0.002  -0.002   0.000  -0.001  -0.000  -0.000   0.000   0.000   0.000   0.000  -0.001  -0.000   0.000
 -0.000   0.000   0.002  -0.000  -0.000   0.000   0.000   0.000  -0.000   0.000  -0.000   0.000   0.000
  0.000  -0.000  -0.000  -0.000  -0.000   0.000   0.000   0.000  -0.000  -0.000  -0.000  -0.000   0.000
  0.000  -0.000  -0.000   0.000   0.000   0.000  -0.000  -0.000  -0.000   0.000   0.000  -0.000  -0.000
 -0.000   0.000   0.000  -0.000   0.000   0.000   0.000  -0.000   0.000   0.000   0.000   0.000   0.000
  0.000  -0.000   0.001  -0.000   0.000  -0.001  -0.000  -0.000   0.000   0.000  -0.000  -0.000  -0.000
 -0.000   0.000   0.000  -0.000   0.000  -0.000   0.000  -0.000  -0.000   0.000  -0.000  -0.000   0.000
  0.000  -0.000  -0.000  -0.000  -0.000   0.000   0.000   0.000  -0.000   0.000  -0.000   0.000  -0.000
 total augmentation occupancy for first ion, spin component:           4
 -0.029  -0.001   0.000   0.038  -0.000  -0.000  -0.005   0.000  -0.000   0.000  -0.004  -0.000  -0.000
 -0.001   0.023  -0.000  -0.043   0.000  -0.000   0.005   0.000  -0.000  -0.000   0.006   0.000   0.000
  0.000  -0.000  -0.030  -0.000   0.000  -0.004   0.000  -0.000   0.002   0.000   0.000  -0.000  -0.000
  0.038  -0.043  -0.000   0.002   0.000   0.000  -0.002  -0.000  -0.000   0.000  -0.009  -0.000  -0.000
 -0.000   0.000   0.000   0.000  -0.030  -0.000  -0.000  -0.004  -0.000  -0.000  -0.000   0.000  -0.002
 -0.000  -0.000  -0.004   0.000  -0.000   0.001  -0.000   0.000  -0.000  -0.001   0.000   0.000   0.000
 -0.005   0.005   0.000  -0.002  -0.000  -0.000   0.002   0.000   0.000   0.000  -0.000   0.000   0.000
  0.000   0.000  -0.000  -0.000  -0.004   0.000   0.000   0.002   0.000   0.000   0.000  -0.001   0.000
 -0.000  -0.000   0.002  -0.000  -0.000  -0.000   0.000   0.000   0.001  -0.000  -0.000  -0.000   0.000
  0.000  -0.000   0.000   0.000  -0.000  -0.001   0.000   0.000  -0.000   0.001   0.000  -0.000   0.000
 -0.004   0.006   0.000  -0.009  -0.000   0.000  -0.000   0.000  -0.000   0.000   0.002  -0.000  -0.000
 -0.000   0.000  -0.000  -0.000   0.000   0.000   0.000  -0.001  -0.000  -0.000  -0.000   0.001   0.000
 -0.000   0.000  -0.000  -0.000  -0.002   0.000   0.000   0.000   0.000   0.000  -0.000   0.000   0.001


------------------------ aborting loop because EDIFF is reached ----------------------------------------


 


 total charge     
 
# of ion       s       p       d       tot
------------------------------------------
    1        1.481   2.319   0.050   3.850
    2        1.481   2.319   0.050   3.850
    3        0.434   0.686   3.510   4.630
--------------------------------------------------
tot          3.397   5.323   3.609  12.330
 


 magnetization (x)
 
# of ion       s       p       d       tot
------------------------------------------
    1       -0.000  -0.000   0.000  -0.000
    2       -0.000  -0.000   0.000  -0.000
    3       -0.000   0.000   0.000   0.000
--------------------------------------------------
tot         -0.000  -0.000   0.000  -0.000
 


 magnetization (y)
 
# of ion       s       p       d       tot
------------------------------------------
    1        0.000   0.000  -0.000   0.000
    2       -0.000  -0.000  -0.000  -0.000
    3       -0.000  -0.000  -0.000  -0.000
--------------------------------------------------
tot          0.000   0.000  -0.000  -0.000
 


 magnetization (z)
 
# of ion       s       p       d       tot
------------------------------------------
    1       -0.002  -0.038   0.003  -0.036
    2       -0.002  -0.038   0.003  -0.036
    3        0.008   0.008   0.632   0.648
--------------------------------------------------
tot          0.005  -0.068   0.639   0.575
 
    CHARGE:  cpu time    0.0821: real time    0.0823
    FORLOC:  cpu time    0.0012: real time    0.0023
    FORNL :  cpu time    0.2947: real time    0.3151
    STRESS:  cpu time    0.8869: real time    0.9214
    FORCOR:  cpu time    0.0528: real time    0.0553
    FORHAR:  cpu time    0.0038: real time    0.0250
    MIXING:  cpu time    0.0098: real time    0.0098
    OFIELD:  cpu time    0.0002: real time    0.0126

 ---------------------------------------------------------------------------------------------

         DFTD3 V3.0 Rev 1        
 IVDW         = 12
 DF pbe       
 parameters
 VDW_S6       =    1.0000
 VDW_S8       =    0.7875
 VDW_A1       =    0.4289
 VDW_A2       =    4.4407
 k1-k3        =   16.0000    1.3333   -4.0000
 VDW_RADIUS   =   50.2022 A
 VDW_CNRADIUS =   21.1671 A
 Edisp (eV)   -0.97150

 E6    (eV) :    -0.5271
 E8    (eV) :    -0.4444
 % E8        : 45.75
    FORVDW:  cpu time    0.0279: real time    0.2572

  FORCE on cell =-STRESS in cart. coord.  units (eV):
  Direction    XX          YY          ZZ          XY          YZ          ZX
  --------------------------------------------------------------------------------------
  Alpha Z    13.90262    13.90262    13.90262
  Ewald    3094.42732  3094.42735 -3589.81513    -0.00002    -0.00002     0.00001
  Hartree  3186.56827  3186.56828 -3156.38651    -0.00001    -0.00001     0.00000
  E(xc)     -66.37249   -66.37249   -67.46761    -0.00000     0.00000    -0.00000
  Local   -6498.40271 -6498.40258  6522.75714    -0.00012     0.00001    -0.00001
  n-local    81.96243    81.96243    86.92020     0.00001     0.00000    -0.00000
  augment    11.79159    11.79144    11.72453     0.00013    -0.00000     0.00000
  Kinetic   176.70697   176.70699   178.76910    -0.00001    -0.00001     0.00001
  Fock        0.00000     0.00000     0.00000     0.00000     0.00000     0.00000
  vdW        -0.97879    -0.97879    -0.33822     0.00000     0.00000    -0.00000
  -------------------------------------------------------------------------------------
  Total      -0.39478    -0.39474     0.06612    -0.00003    -0.00002     0.00001
  in kB      -2.90216    -2.90190     0.48607    -0.00020    -0.00017     0.00008
  external pressure =       -1.77 kB  Pullay stress =        0.00 kB


 VOLUME and BASIS-vectors are now :
 -----------------------------------------------------------------------------
  energy-cutoff  :      400.00
  volume of cell :      217.94
      direct lattice vectors                 reciprocal lattice vectors
     2.864537506 -1.653841500  0.000000000     0.349096494  0.000000000  0.000000000
     0.000000000  3.307683000  0.000000000     0.174548247  0.302326432  0.000000000
     0.000000000  0.000000000 23.001852000     0.000000000  0.000000000  0.043474760

  length of vectors
     3.307683000  3.307683000 23.001852000     0.349096494  0.349096494  0.043474760


 FORCES acting on ions
    electron-ion (+dipol)            ewald-force                    non-local-force                 convergence-correction
 -----------------------------------------------------------------------------------------------
   -.420E-06 -.385E-04 0.470E+03   -.421E-05 0.703E-05 -.472E+03   -.229E-05 0.192E-04 0.194E+01   0.198E-05 0.870E-05 0.717E-02
   -.121E-04 0.961E-05 -.470E+03   0.283E-05 -.548E-05 0.472E+03   0.448E-05 -.586E-06 -.194E+01   -.113E-06 0.371E-05 -.684E-02
   -.819E-06 0.467E-05 -.153E-01   0.138E-05 -.155E-05 0.128E-01   0.219E-05 -.821E-06 0.250E-02   0.639E-06 -.482E-05 0.185E-03
 -----------------------------------------------------------------------------------------------
   -.133E-04 -.242E-04 -.129E-02   0.139E-14 -.592E-14 0.284E-13   0.438E-05 0.178E-04 0.311E-02   0.251E-05 0.759E-05 0.519E-03
 
 
 POSITION                                       TOTAL-FORCE (eV/Angst)
 -----------------------------------------------------------------------------------
      1.90969     -0.00000      2.55994        -0.000003     -0.000004     -0.012396
      0.95485      1.65384      5.71537        -0.000003      0.000007      0.013014
      2.86454     -1.65384      4.13794         0.000006     -0.000003     -0.000618
 -----------------------------------------------------------------------------------
    total drift:                               -0.000006      0.000001      0.002344


--------------------------------------------------------------------------------------------------------



  FREE ENERGIE OF THE ION-ELECTRON SYSTEM (eV)
  ---------------------------------------------------
  free  energy   TOTEN  =       -19.00260977 eV

  energy  without entropy=      -19.00128182  energy(sigma->0) =      -19.00194579
 


--------------------------------------------------------------------------------------------------------


    POTLOK:  cpu time    0.0543: real time    0.0781


--------------------------------------------------------------------------------------------------------


 writing wavefunctions
     LOOP+:  cpu time   82.4089: real time   88.8879
    4ORBIT:  cpu time    0.0001: real time    0.0185

 Spin-Orbit-Coupling matrix elements

 Ion:    1  E_soc:     -0.0418076
 l=   1
     0.0000000    -0.0069751    -0.0069523
    -0.0069751     0.0000000    -0.0069749
    -0.0069523    -0.0069749     0.0000000
 l=   2
     0.0000000    -0.0000009     0.0000000    -0.0000009    -0.0000030
    -0.0000009     0.0000000     0.0000001     0.0000047    -0.0000009
     0.0000000     0.0000001     0.0000000     0.0000001     0.0000000
    -0.0000009     0.0000047     0.0000001     0.0000000    -0.0000009
    -0.0000030    -0.0000009     0.0000000    -0.0000009     0.0000000
 l=   3
     0.0000000     0.0000000     0.0000000     0.0000000     0.0000000     0.0000000     0.0000000
     0.0000000     0.0000000     0.0000000     0.0000000     0.0000000     0.0000000     0.0000000
     0.0000000     0.0000000     0.0000000     0.0000000     0.0000000     0.0000000     0.0000000
     0.0000000     0.0000000     0.0000000     0.0000000     0.0000000     0.0000000     0.0000000
     0.0000000     0.0000000     0.0000000     0.0000000     0.0000000     0.0000000     0.0000000
     0.0000000     0.0000000     0.0000000     0.0000000     0.0000000     0.0000000     0.0000000
     0.0000000     0.0000000     0.0000000     0.0000000     0.0000000     0.0000000     0.0000000

 Ion:    2  E_soc:     -0.0418008
 l=   1
     0.0000000    -0.0069740    -0.0069508
    -0.0069740     0.0000000    -0.0069740
    -0.0069508    -0.0069740     0.0000000
 l=   2
     0.0000000    -0.0000009     0.0000000    -0.0000009    -0.0000030
    -0.0000009     0.0000000     0.0000001     0.0000047    -0.0000009
     0.0000000     0.0000001     0.0000000     0.0000001     0.0000000
    -0.0000009     0.0000047     0.0000001     0.0000000    -0.0000009
    -0.0000030    -0.0000009     0.0000000    -0.0000009     0.0000000
 l=   3
     0.0000000     0.0000000     0.0000000     0.0000000     0.0000000     0.0000000     0.0000000
     0.0000000     0.0000000     0.0000000     0.0000000     0.0000000     0.0000000     0.0000000
     0.0000000     0.0000000     0.0000000     0.0000000     0.0000000     0.0000000     0.0000000
     0.0000000     0.0000000     0.0000000     0.0000000     0.0000000     0.0000000     0.0000000
     0.0000000     0.0000000     0.0000000     0.0000000     0.0000000     0.0000000     0.0000000
     0.0000000     0.0000000     0.0000000     0.0000000     0.0000000     0.0000000     0.0000000
     0.0000000     0.0000000     0.0000000     0.0000000     0.0000000     0.0000000     0.0000000

 Ion:    3  E_soc:     -0.0043759
 l=   1
     0.0000000    -0.0002513    -0.0001981
    -0.0002513     0.0000000    -0.0002513
    -0.0001981    -0.0002513     0.0000000
 l=   2
     0.0000000    -0.0001051     0.0000000    -0.0001051    -0.0003130
    -0.0001051     0.0000000    -0.0002887    -0.0001764    -0.0001052
     0.0000000    -0.0002887     0.0000000    -0.0002886     0.0000000
    -0.0001051    -0.0001764    -0.0002886     0.0000000    -0.0001052
    -0.0003130    -0.0001052     0.0000000    -0.0001052     0.0000000
 l=   3
     0.0000000     0.0000000     0.0000000     0.0000000     0.0000000     0.0000000     0.0000000
     0.0000000     0.0000000     0.0000000     0.0000000     0.0000000     0.0000000     0.0000000
     0.0000000     0.0000000     0.0000000     0.0000000     0.0000000     0.0000000     0.0000000
     0.0000000     0.0000000     0.0000000     0.0000000     0.0000000     0.0000000     0.0000000
     0.0000000     0.0000000     0.0000000     0.0000000     0.0000000     0.0000000     0.0000000
     0.0000000     0.0000000     0.0000000     0.0000000     0.0000000     0.0000000     0.0000000
     0.0000000     0.0000000     0.0000000     0.0000000     0.0000000     0.0000000     0.0000000
 


 total charge     
 
# of ion       s       p       d       tot
------------------------------------------
    1        1.481   2.319   0.050   3.850
    2        1.481   2.319   0.050   3.850
    3        0.434   0.686   3.510   4.630
--------------------------------------------------
tot          3.397   5.323   3.609  12.330
 


 magnetization (x)
 
# of ion       s       p       d       tot
------------------------------------------
    1       -0.000  -0.000   0.000  -0.000
    2       -0.000  -0.000   0.000  -0.000
    3       -0.000   0.000   0.000   0.000
--------------------------------------------------
tot         -0.000  -0.000   0.000  -0.000
 


 magnetization (y)
 
# of ion       s       p       d       tot
------------------------------------------
    1        0.000   0.000  -0.000   0.000
    2       -0.000  -0.000  -0.000  -0.000
    3       -0.000  -0.000  -0.000  -0.000
--------------------------------------------------
tot          0.000   0.000  -0.000  -0.000
 


 magnetization (z)
 
# of ion       s       p       d       tot
------------------------------------------
    1       -0.002  -0.038   0.003  -0.036
    2       -0.002  -0.038   0.003  -0.036
    3        0.008   0.008   0.632   0.648
--------------------------------------------------
tot          0.005  -0.068   0.639   0.575
 

 total amount of memory used by VASP MPI-rank0    43155. kBytes
=======================================================================

   base      :      30000. kBytes
   nonlr-proj:        213. kBytes
   fftplans  :        676. kBytes
   grid      :       2334. kBytes
   one-center:         62. kBytes
   wavefun   :       9870. kBytes
 
  
  
 General timing and accounting informations for this job:
 ========================================================
  
                  Total CPU time used (sec):       89.086
                            User time (sec):       86.828
                          System time (sec):        2.258
                         Elapsed time (sec):       97.723
  
                   Maximum memory used (kb):       79464.
                   Average memory used (kb):           0.
  
                          Minor page faults:        37818
                          Major page faults:           34
                 Voluntary context switches:         5680
