 vasp.5.4.1 24Jun15 (build Mar 10 2019 16:56:43) complex                         
 executed on           IFC91_ompi date 2019.03.28  19:55:03
 running on    4 total cores
 distrk:  each k-point on    4 cores,    1 groups
 distr:  one band on NCORES_PER_BAND=   1 cores,    4 groups


--------------------------------------------------------------------------------------------------------


 INCAR:
 POTCAR:    PAW_PBE H 15Jun2001                   
 POTCAR:    PAW_PBE N 08Apr2002                   
 POTCAR:    PAW_PBE H 15Jun2001                   
   VRHFIN =H: ultrasoft test                                                    
   LEXCH  = PE                                                                  
   EATOM  =    12.4884 eV,    0.9179 Ry                                         
                                                                                
   TITEL  = PAW_PBE H 15Jun2001                                                 
   LULTRA =        F    use ultrasoft PP ?                                      
   IUNSCR =        0    unscreen: 0-lin 1-nonlin 2-no                           
   RPACOR =    0.000    partial core radius                                     
   POMASS =    1.000; ZVAL   =    1.000    mass and valenz                      
   RCORE  =    1.100    outmost cutoff radius                                   
   RWIGS  =    0.700; RWIGS  =    0.370    wigner-seitz radius (au A)           
   ENMAX  =  250.000; ENMIN  =  200.000 eV                                      
   RCLOC  =    0.701    cutoff for local pot                                    
   LCOR   =        T    correct aug charges                                     
   LPAW   =        T    paw PP                                                  
   EAUG   =  400.000                                                            
   RMAX   =    1.123    core radius for proj-oper                               
   RAUG   =    1.200    factor for augmentation sphere                          
   RDEP   =    1.112    radius for radial grids                                 
   RDEPT  =    0.926    core radius for aug-charge                              
                                                                                
   Atomic configuration                                                         
    2 entries                                                                   
     n  l   j            E        occ.                                          
     1  0  0.50        -6.4927   1.0000                                         
     2  1  0.50        -3.4015   0.0000                                         
   Description                                                                  
     l       E           TYP  RCUT    TYP  RCUT                                 
     0     -6.4927494     23  1.100                                             
     0      6.8029130     23  1.100                                             
     1     -4.0817478     23  1.100                                             
  local pseudopotential read in
  atomic valenz-charges read in
  non local Contribution for L=           0  read in
    real space projection operators read in
  non local Contribution for L=           0  read in
    real space projection operators read in
  non local Contribution for L=           1  read in
    real space projection operators read in
    PAW grid and wavefunctions read in

   number of l-projection  operators is LMAX  =           3
   number of lm-projection operators is LMMAX =           5

 POTCAR:    PAW_PBE N 08Apr2002                   
   VRHFIN =N: s2p3                                                              
   LEXCH  = PE                                                                  
   EATOM  =   264.5486 eV,   19.4438 Ry                                         
                                                                                
   TITEL  = PAW_PBE N 08Apr2002                                                 
   LULTRA =        F    use ultrasoft PP ?                                      
   IUNSCR =        1    unscreen: 0-lin 1-nonlin 2-no                           
   RPACOR =    1.200    partial core radius                                     
   POMASS =   14.001; ZVAL   =    5.000    mass and valenz                      
   RCORE  =    1.500    outmost cutoff radius                                   
   RWIGS  =    1.400; RWIGS  =    0.741    wigner-seitz radius (au A)           
   ENMAX  =  400.000; ENMIN  =  300.000 eV                                      
   ICORE  =        2    local potential                                         
   LCOR   =        T    correct aug charges                                     
   LPAW   =        T    paw PP                                                  
   EAUG   =  627.112                                                            
   DEXC   =    0.000                                                            
   RMAX   =    1.529    core radius for proj-oper                               
   RAUG   =    1.300    factor for augmentation sphere                          
   RDEP   =    1.514    radius for radial grids                                 
   RDEPT  =    1.338    core radius for aug-charge                              
                                                                                
   Atomic configuration                                                         
    4 entries                                                                   
     n  l   j            E        occ.                                          
     1  0  0.50      -384.7179   2.0000                                         
     2  0  0.50       -18.5828   2.0000                                         
     2  1  0.50        -7.0898   3.0000                                         
     3  2  1.50        -6.8029   0.0000                                         
   Description                                                                  
     l       E           TYP  RCUT    TYP  RCUT                                 
     0    -18.5828119     23  1.200                                             
     0    -13.5018863     23  1.200                                             
     1     -7.0897853     23  1.500                                             
     1      9.5240782     23  1.500                                             
     2     -6.8029130      7  1.500                                             
  local pseudopotential read in
  partial core-charges read in
  partial kinetic energy density read in
  atomic valenz-charges read in
  non local Contribution for L=           0  read in
    real space projection operators read in
  non local Contribution for L=           0  read in
    real space projection operators read in
  non local Contribution for L=           1  read in
    real space projection operators read in
  non local Contribution for L=           1  read in
    real space projection operators read in
    PAW grid and wavefunctions read in

   number of l-projection  operators is LMAX  =           4
   number of lm-projection operators is LMMAX =           8

  PAW_PBE H 15Jun2001                   :
 energy of atom  1       EATOM=  -12.4884
 kinetic energy error for atom=    0.0098 (will be added to EATOM!!)
  PAW_PBE N 08Apr2002                   :
 energy of atom  2       EATOM= -264.5486
 kinetic energy error for atom=    0.0736 (will be added to EATOM!!)


 POSCAR: ammonia flipping                        
  positions in direct lattice
  velocities in cartesian coordinates
  No initial velocities read in
 exchange correlation table for  LEXCH =        8
   RHO(1)=    0.500       N(1)  =     2000
   RHO(2)=  100.500       N(2)  =     4000



--------------------------------------------------------------------------------------------------------


 ion  position               nearest neighbor table
   1  0.646  0.574  0.500-   4 1.02
   2  0.500  0.355  0.500-   4 1.02
   3  0.354  0.574  0.500-   4 1.02
   4  0.500  0.500  0.500-   2 1.02   1 1.02   3 1.02

  LATTYP: Found a simple orthorhombic cell.
 ALAT       =     6.0000000000
 B/A-ratio  =     1.1666666667
 C/A-ratio  =     1.3333333333
  
  Lattice vectors:
  
 A1 = (   6.0000000000,   0.0000000000,   0.0000000000)
 A2 = (   0.0000000000,   7.0000000000,   0.0000000000)
 A3 = (   0.0000000000,   0.0000000000,   8.0000000000)


Analysis of symmetry for initial positions (statically):
=====================================================================
 Subroutine PRICEL returns:
 Original cell was already a primitive cell.
 

 Routine SETGRP: Setting up the symmetry group for a 
 simple orthorhombic supercell.


 Subroutine GETGRP returns: Found  4 space group operations
 (whereof  4 operations were pure point group operations)
 out of a pool of  8 trial point group operations.


The static configuration has the point symmetry C_2v.


Analysis of symmetry for dynamics (positions and initial velocities):
=====================================================================
 Subroutine PRICEL returns:
 Original cell was already a primitive cell.
 

 Routine SETGRP: Setting up the symmetry group for a 
 simple orthorhombic supercell.


 Subroutine GETGRP returns: Found  4 space group operations
 (whereof  4 operations were pure point group operations)
 out of a pool of  8 trial point group operations.


The dynamic configuration has the point symmetry C_2v.


 irot  :   1
 --------------------------------------------------------------------
 isymop:   1   0   0
           0   1   0
           0   0   1

 gtrans:     0.0000000     0.0000000     0.0000000

 ptrans:     0.0000000     0.0000000     0.0000000
 rotmap:
 (   1->   1)  (   2->   2)  (   3->   3)  (   4->   4) 


 irot  :   2
 --------------------------------------------------------------------
 isymop:   1   0   0
           0   1   0
           0   0  -1

 gtrans:     0.0000000     0.0000000     0.0000000

 ptrans:     0.0000000     0.0000000     0.0000000
 rotmap:
 (   1->   1)  (   2->   2)  (   3->   3)  (   4->   4) 


 irot  :   3
 --------------------------------------------------------------------
 isymop:  -1   0   0
           0   1   0
           0   0  -1

 gtrans:     0.0000000     0.0000000     0.0000000

 ptrans:     0.0000000     0.0000000     0.0000000
 rotmap:
 (   1->   3)  (   2->   2)  (   3->   1)  (   4->   4) 


 irot  :   4
 --------------------------------------------------------------------
 isymop:  -1   0   0
           0   1   0
           0   0   1

 gtrans:     0.0000000     0.0000000     0.0000000

 ptrans:     0.0000000     0.0000000     0.0000000
 rotmap:
 (   1->   3)  (   2->   2)  (   3->   1)  (   4->   4) 


 KPOINTS: k-points                                

Automatic generation of k-mesh.
Space group operators:
 irot       det(A)        alpha          n_x          n_y          n_z        tau_x        tau_y        tau_z
    1     1.000000     0.000000     1.000000     0.000000     0.000000     0.000000     0.000000     0.000000
    2    -1.000000   180.000000     0.000000     0.000000     1.000000     0.000000     0.000000     0.000000
    3     1.000000   180.000000     0.000000     1.000000     0.000000     0.000000     0.000000     0.000000
    4    -1.000000   180.000000     1.000000     0.000000     0.000000     0.000000     0.000000     0.000000
 
 Subroutine IBZKPT returns following result:
 ===========================================
 
 Found      1 irreducible k-points:
 
 Following reciprocal coordinates:
            Coordinates               Weight
  0.000000  0.000000  0.000000      1.000000
 
 Following cartesian coordinates:
            Coordinates               Weight
  0.000000  0.000000  0.000000      1.000000
 
 
 Subroutine IBZKPT_HF returns following result:
 ==============================================
 
 Found      1 k-points in 1st BZ
 the following      1 k-points will be used (e.g. in the exchange kernel)
 Following reciprocal coordinates:   # in IRBZ
  0.000000  0.000000  0.000000    1.00000000   1 t-inv F


--------------------------------------------------------------------------------------------------------




 Dimension of arrays:
   k-points           NKPTS =      1   k-points in BZ     NKDIM =      1   number of bands    NBANDS=      8
   number of dos      NEDOS =    301   number of ions     NIONS =      4
   non local maximal  LDIM  =      4   non local SUM 2l+1 LMDIM =      8
   total plane-waves  NPLWV =  43200
   max r-space proj   IRMAX =      1   max aug-charges    IRDMAX=   1781
   dimension x,y,z NGX =    30 NGY =   36 NGZ =   40
   dimension x,y,z NGXF=    60 NGYF=   72 NGZF=   80
   support grid    NGXF=    60 NGYF=   72 NGZF=   80
   ions per type =               3   1
 NGX,Y,Z   is equivalent  to a cutoff of   8.31,  8.55,  8.31 a.u.
 NGXF,Y,Z  is equivalent  to a cutoff of  16.62, 17.10, 16.62 a.u.


 I would recommend the setting:
   dimension x,y,z NGX =    29 NGY =   34 NGZ =   39
 SYSTEM =  Ammonia flipping                        
 POSCAR =  ammonia flipping                        

 Startparameter for this run:
   NWRITE =      3    write-flag & timer
   PREC   = normal    normal or accurate (medium, high low for compatibility)
   ISTART =      0    job   : 0-new  1-cont  2-samecut
   ICHARG =      2    charge: 1-file 2-atom 10-const
   ISPIN  =      1    spin polarized calculation?
   LNONCOLLINEAR =      F non collinear calculations
   LSORBIT =      F    spin-orbit coupling
   INIWAV =      1    electr: 0-lowe 1-rand  2-diag
   LASPH  =      F    aspherical Exc in radial PAW
   METAGGA=      F    non-selfconsistent MetaGGA calc.

 Electronic Relaxation 1
   ENCUT  =  400.0 eV  29.40 Ry    5.42 a.u.   9.78 11.42 13.05*2*pi/ulx,y,z
   ENINI  =  400.0     initial cutoff
   ENAUG  =  627.1 eV  augmentation charge cutoff
   NELM   =     60;   NELMIN=  2; NELMDL= -5     # of ELM steps 
   EDIFF  = 0.1E-07   stopping-criterion for ELM
   LREAL  =      F    real-space projection
   NLSPLINE    = F    spline interpolate recip. space projectors
   LCOMPAT=      F    compatible to vasp.4.4
   GGA_COMPAT  = T    GGA compatible to vasp.4.4-vasp.4.6
   LMAXPAW     = -100 max onsite density
   LMAXMIX     =    2 max onsite mixed and CHGCAR
   VOSKOWN=      0    Vosko Wilk Nusair interpolation
   ROPT   =    0.00000   0.00000
 Ionic relaxation
   EDIFFG = -.1E-01   stopping-criterion for IOM
   NSW    =     85    number of steps for IOM
   NBLOCK =      1;   KBLOCK =      1    inner block; outer block 
   IBRION =      5    ionic relax: 0-MD 1-quasi-New 2-CG
   NFREE  =      2    steps in history (QN), initial steepest desc. (CG)
   ISIF   =      2    stress and relaxation
   IWAVPR =     11    prediction:  0-non 1-charg 2-wave 3-comb
   ISYM   =      2    0-nonsym 1-usesym 2-fastsym
   LCORR  =      T    Harris-Foulkes like correction to forces

   POTIM  = 0.0150    time-step for ionic-motion
   TEIN   =    0.0    initial temperature
   TEBEG  =    0.0;   TEEND  =   0.0 temperature during run
   SMASS  =  -3.00    Nose mass-parameter (am)
   estimated Nose-frequenzy (Omega)   =  0.10E-29 period in steps =****** mass=  -0.823E-27a.u.
   SCALEE = 1.0000    scale energy and forces
   NPACO  =    256;   APACO  = 16.0  distance and # of slots for P.C.
   PSTRESS=    0.0 pullay stress

  Mass of Ions in am
   POMASS =   1.00 14.00
  Ionic Valenz
   ZVAL   =   1.00  5.00
  Atomic Wigner-Seitz radii
   RWIGS  =  -1.00 -1.00
  virtual crystal weights 
   VCA    =   1.00  1.00
   NELECT =       8.0000    total number of electrons
   NUPDOWN=      -1.0000    fix difference up-down

 DOS related values:
   EMIN   =  10.00;   EMAX   =-10.00  energy-range for DOS
   EFERMI =   0.00
   ISMEAR =     1;   SIGMA  =   0.20  broadening in eV -4-tet -1-fermi 0-gaus

 Electronic relaxation 2 (details)
   IALGO  =     68    algorithm
   LDIAG  =      T    sub-space diagonalisation (order eigenvalues)
   LSUBROT=      F    optimize rotation matrix (better conditioning)
   TURBO    =      0    0=normal 1=particle mesh
   IRESTART =      0    0=no restart 2=restart with 2 vectors
   NREBOOT  =      0    no. of reboots
   NMIN     =      0    reboot dimension
   EREF     =   0.00    reference energy to select bands
   IMIX   =      4    mixing-type and parameters
     AMIX     =   0.40;   BMIX     =  1.00
     AMIX_MAG =   1.60;   BMIX_MAG =  1.00
     AMIN     =   0.10
     WC   =   100.;   INIMIX=   1;  MIXPRE=   1;  MAXMIX= -45

 Intra band minimization:
   WEIMIN = 0.0010     energy-eigenvalue tresh-hold
   EBREAK =  0.31E-09  absolut break condition
   DEPER  =   0.30     relativ break condition  

   TIME   =   0.40     timestep for ELM

  volume/ion in A,a.u.               =      84.00       566.86
  Fermi-wavevector in a.u.,A,eV,Ry     =   0.470968  0.890001  3.017925  0.221811
  Thomas-Fermi vector in A             =   1.463355

 Write flags
   LWAVE  =      T    write WAVECAR
   LCHARG =      T    write CHGCAR
   LVTOT  =      F    write LOCPOT, total local potential
   LVHAR  =      F    write LOCPOT, Hartree potential only
   LELF   =      F    write electronic localiz. function (ELF)
   LORBIT =      0    0 simple, 1 ext, 2 COOP (PROOUT)


 Dipole corrections
   LMONO  =      F    monopole corrections only (constant potential shift)
   LDIPOL =      F    correct potential (dipole corrections)
   IDIPOL =      0    1-x, 2-y, 3-z, 4-all directions 
   EPSILON=  1.0000000 bulk dielectric constant

 Exchange correlation treatment:
   GGA     =    --    GGA type
   LEXCH   =     8    internal setting for exchange type
   VOSKOWN=      0    Vosko Wilk Nusair interpolation
   LHFCALC =     F    Hartree Fock is set to
   LHFONE  =     F    Hartree Fock one center treatment
   AEXX    =    0.0000 exact exchange contribution

 Linear response parameters
   LEPSILON=     F    determine dielectric tensor
   LRPA    =     F    only Hartree local field effects (RPA)
   LNABLA  =     F    use nabla operator in PAW spheres
   LVEL    =     F    velocity operator in full k-point grid
   LINTERFAST=   F  fast interpolation
   KINTER  =     0    interpolate to denser k-point grid
   CSHIFT  =0.1000    complex shift for real part using Kramers Kronig
   OMEGAMAX=  -1.0    maximum frequency
   DEG_THRESHOLD= 0.2000000E-02 threshold for treating states as degnerate
   RTIME   =    0.100 relaxation time in fs

 Orbital magnetization related:
   ORBITALMAG=     F  switch on orbital magnetization
   LCHIMAG   =     F  perturbation theory with respect to B field
   DQ        =  0.001000  dq finite difference perturbation B field



--------------------------------------------------------------------------------------------------------


 finite differences
 charge density and potential will be updated during run
 non-spin polarized calculation
 RMM-DIIS sequential band-by-band and
  variant of blocked Davidson during initial phase
 perform sub-space diagonalisation
    before iterative eigenvector-optimisation
 modified Broyden-mixing scheme, WC =      100.0
 initial mixing is a Kerker type mixing with AMIX =  0.4000 and BMIX =      1.0000
 Hartree-type preconditioning will be used
 using additional bands            4
 reciprocal scheme for non local part
 use partial core corrections
 calculate Harris-corrections to forces   (improved forces if not selfconsistent)
 use gradient corrections 
 use of overlap-Matrix (Vanderbilt PP)
 Methfessel and Paxton  Order N= 1 SIGMA  =   0.20


--------------------------------------------------------------------------------------------------------


  energy-cutoff  :      400.00
  volume of cell :      336.00
      direct lattice vectors                 reciprocal lattice vectors
     6.000000000  0.000000000  0.000000000     0.166666667  0.000000000  0.000000000
     0.000000000  7.000000000  0.000000000     0.000000000  0.142857143  0.000000000
     0.000000000  0.000000000  8.000000000     0.000000000  0.000000000  0.125000000

  length of vectors
     6.000000000  7.000000000  8.000000000     0.166666667  0.142857143  0.125000000



 k-points in units of 2pi/SCALE and weight: k-points                                
   0.00000000  0.00000000  0.00000000       1.000

 k-points in reciprocal lattice and weights: k-points                                
   0.00000000  0.00000000  0.00000000       1.000

 position of ions in fractional coordinates (direct lattice) 
   0.64620000  0.57360000  0.50000000
   0.50000000  0.35470000  0.50000000
   0.35380000  0.57360000  0.50000000
   0.50000000  0.50000000  0.50000000

 position of ions in cartesian coordinates  (Angst):
   3.87720000  4.01520000  4.00000000
   3.00000000  2.48290000  4.00000000
   2.12280000  4.01520000  4.00000000
   3.00000000  3.50000000  4.00000000



--------------------------------------------------------------------------------------------------------


 k-point  1 :   0.0000 0.0000 0.0000  plane waves:    6075

 maximum and minimum number of plane-waves per node :      6075     6075

 maximum number of plane-waves:      6075
 maximum index in each direction: 
   IXMAX=    9   IYMAX=   11   IZMAX=   13
   IXMIN=   -9   IYMIN=  -11   IZMIN=  -13

 WARNING: aliasing errors must be expected set NGX to  38 to avoid them
 WARNING: aliasing errors must be expected set NGY to  46 to avoid them
 WARNING: aliasing errors must be expected set NGZ to  54 to avoid them
 aliasing errors are usually negligible using standard VASP settings
 and one can safely disregard these warnings

 serial   3D FFT for wavefunctions
 parallel 3D FFT for charge:
    minimum data exchange during FFTs selected (reduces bandwidth)


 total amount of memory used by VASP on root node    41197. kBytes
========================================================================

   base      :      30000. kBytes
   nonl-proj :       1166. kBytes
   fftplans  :       3154. kBytes
   grid      :       6670. kBytes
   one-center:         12. kBytes
   wavefun   :        195. kBytes

     INWAV:  cpu time    0.0000: real time    0.0000
 Broyden mixing: mesh for mixing (old mesh)
   NGX = 19   NGY = 23   NGZ = 27
  (NGX  = 60   NGY  = 72   NGZ  = 80)
  gives a total of  11799 points

 initial charge density was supplied:
 charge density of overlapping atoms calculated
 number of electron       8.0000000 magnetization 
 keeping initial charge density in first step


--------------------------------------------------------------------------------------------------------


 Maximum index for augmentation-charges          380 (set IRDMAX)


--------------------------------------------------------------------------------------------------------


 First call to EWALD:  gamma=   0.255
 Maximum number of real-space cells 3x 3x 2
 Maximum number of reciprocal cells 2x 3x 3

 FEWALD executed in parallel
    FEWALD:  cpu time    0.0011: real time    0.0013


----------------------------------------- Iteration    1(   1)  ---------------------------------------


    POTLOK:  cpu time    0.0591: real time    0.0607
    SETDIJ:  cpu time    0.0016: real time    0.0024
     EDDAV:  cpu time    0.0280: real time    0.0304
       DOS:  cpu time    0.0002: real time    0.0002
    --------------------------------------------
      LOOP:  cpu time    0.0894: real time    0.0949

 eigenvalue-minimisations  :    16
 total energy-change (2. order) : 0.5195003E+02  (-0.2388720E+03)
 number of electron       8.0000000 magnetization 
 augmentation part        8.0000000 magnetization 

 Free energy of the ion-electron system (eV)
  ---------------------------------------------------
  alpha Z        PSCENC =         0.68708806
  Ewald energy   TEWEN  =        55.82276776
  -Hartree energ DENC   =      -270.20701651
  -exchange      EXHF   =         0.00000000
  -V(xc)+E(xc)   XCENC  =        26.53014519
  PAW double counting   =       211.33481392     -212.55243136
  entropy T*S    EENTRO =         0.01165855
  eigenvalues    EBANDS =       -61.58789366
  atomic energy  EATOM  =       301.91090041
  Solvation  Ediel_sol  =         0.00000000
  ---------------------------------------------------
  free energy    TOTEN  =        51.95003235 eV

  energy without entropy =       51.93837380  energy(sigma->0) =       51.94614617


--------------------------------------------------------------------------------------------------------




 average (electrostatic) potential at core
  the test charge radii are     0.5201  0.7089
  (the norm of the test charge is              1.0000)
       1 -46.4907       2 -46.4903       3 -46.4907       4 -80.2338



 E-fermi :  -0.7865     XC(G=0):  -2.0223     alpha+bet : -0.5051


 k-point     1 :       0.0000    0.0000    0.0000
  band No.  band energies     occupation 
      1     -20.9280      2.00000
      2      -7.5123      2.00000
      3      -1.3989      2.00013
      4      -0.9548      1.99987
      5       1.7053     -0.00000
      6       2.4692     -0.00000
      7       3.7413     -0.00000
      8       4.7600      0.00000


--------------------------------------------------------------------------------------------------------


 soft charge-density along one line, spin component           1
         0         1         2         3         4         5         6         7         8         9
 total charge-density along one line

 pseudopotential strength for first ion, spin component:           1
 -2.422  -4.185   0.001   0.000   0.001
 -4.185  -7.147   0.003   0.000   0.006
  0.001   0.003  -0.335  -0.000   0.004
  0.000   0.000  -0.000  -0.337  -0.000
  0.001   0.006   0.004  -0.000  -0.330
 total augmentation occupancy for first ion, spin component:           1
  1.000   0.000   0.000   0.000   0.000
  0.000   0.000   0.000   0.000   0.000
  0.000   0.000   0.000   0.000   0.000
  0.000   0.000   0.000   0.000   0.000
  0.000   0.000   0.000   0.000   0.000


----------------------------------------- Iteration    1(   2)  ---------------------------------------


     EDDAV:  cpu time    0.0353: real time    0.0323
       DOS:  cpu time    0.0001: real time    0.0001
    --------------------------------------------
      LOOP:  cpu time    0.0360: real time    0.0330

 eigenvalue-minimisations  :    24
 total energy-change (2. order) :-0.6286482E+02  (-0.6286566E+02)
 number of electron       8.0000000 magnetization 
 augmentation part        8.0000000 magnetization 

 Free energy of the ion-electron system (eV)
  ---------------------------------------------------
  alpha Z        PSCENC =         0.68708806
  Ewald energy   TEWEN  =        55.82276776
  -Hartree energ DENC   =      -270.20701651
  -exchange      EXHF   =         0.00000000
  -V(xc)+E(xc)   XCENC  =        26.53014519
  PAW double counting   =       211.33481392     -212.55243136
  entropy T*S    EENTRO =         0.01159581
  eigenvalues    EBANDS =      -124.45265068
  atomic energy  EATOM  =       301.91090041
  Solvation  Ediel_sol  =         0.00000000
  ---------------------------------------------------
  free energy    TOTEN  =       -10.91478741 eV

  energy without entropy =      -10.92638322  energy(sigma->0) =      -10.91865268


--------------------------------------------------------------------------------------------------------




 average (electrostatic) potential at core
  the test charge radii are     0.5201  0.7089
  (the norm of the test charge is              1.0000)
       1 -46.4907       2 -46.4903       3 -46.4907       4 -80.2338



 E-fermi :  -6.8810     XC(G=0):  -2.0223     alpha+bet : -0.5051


 k-point     1 :       0.0000    0.0000    0.0000
  band No.  band energies     occupation 
      1     -25.5112      2.00000
      2     -15.7466      2.00000
      3     -13.9192      2.00000
      4      -7.0493      2.00000
      5      -1.6754     -0.00000
      6       0.9578      0.00000
      7       1.1708      0.00000
      8       1.6401      0.00000


--------------------------------------------------------------------------------------------------------


 soft charge-density along one line, spin component           1
         0         1         2         3         4         5         6         7         8         9
 total charge-density along one line

 pseudopotential strength for first ion, spin component:           1
 -2.422  -4.185   0.001   0.000   0.001
 -4.185  -7.147   0.003   0.000   0.006
  0.001   0.003  -0.335  -0.000   0.004
  0.000   0.000  -0.000  -0.337  -0.000
  0.001   0.006   0.004  -0.000  -0.330
 total augmentation occupancy for first ion, spin component:           1
  1.000   0.000   0.000   0.000   0.000
  0.000   0.000   0.000   0.000   0.000
  0.000   0.000   0.000   0.000   0.000
  0.000   0.000   0.000   0.000   0.000
  0.000   0.000   0.000   0.000   0.000


----------------------------------------- Iteration    1(   3)  ---------------------------------------


     EDDAV:  cpu time    0.0266: real time    0.0251
       DOS:  cpu time    0.0002: real time    0.0002
    --------------------------------------------
      LOOP:  cpu time    0.0275: real time    0.0261

 eigenvalue-minimisations  :    16
 total energy-change (2. order) :-0.1120433E+02  (-0.1120433E+02)
 number of electron       8.0000000 magnetization 
 augmentation part        8.0000000 magnetization 

 Free energy of the ion-electron system (eV)
  ---------------------------------------------------
  alpha Z        PSCENC =         0.68708806
  Ewald energy   TEWEN  =        55.82276776
  -Hartree energ DENC   =      -270.20701651
  -exchange      EXHF   =         0.00000000
  -V(xc)+E(xc)   XCENC  =        26.53014519
  PAW double counting   =       211.33481392     -212.55243136
  entropy T*S    EENTRO =         0.01159581
  eigenvalues    EBANDS =      -135.65698158
  atomic energy  EATOM  =       301.91090041
  Solvation  Ediel_sol  =         0.00000000
  ---------------------------------------------------
  free energy    TOTEN  =       -22.11911831 eV

  energy without entropy =      -22.13071412  energy(sigma->0) =      -22.12298358


--------------------------------------------------------------------------------------------------------




 average (electrostatic) potential at core
  the test charge radii are     0.5201  0.7089
  (the norm of the test charge is              1.0000)
       1 -46.4907       2 -46.4903       3 -46.4907       4 -80.2338



 E-fermi :  -9.9091     XC(G=0):  -2.0223     alpha+bet : -0.5051


 k-point     1 :       0.0000    0.0000    0.0000
  band No.  band energies     occupation 
      1     -25.5965      2.00000
      2     -16.1482      2.00000
      3     -16.0064      2.00000
      4     -10.0774      2.00000
      5      -1.9296      0.00000
      6       0.6469      0.00000
      7       0.9406      0.00000
      8       1.3022      0.00000


--------------------------------------------------------------------------------------------------------


 soft charge-density along one line, spin component           1
         0         1         2         3         4         5         6         7         8         9
 total charge-density along one line

 pseudopotential strength for first ion, spin component:           1
 -2.422  -4.185   0.001   0.000   0.001
 -4.185  -7.147   0.003   0.000   0.006
  0.001   0.003  -0.335  -0.000   0.004
  0.000   0.000  -0.000  -0.337  -0.000
  0.001   0.006   0.004  -0.000  -0.330
 total augmentation occupancy for first ion, spin component:           1
  1.000   0.000   0.000   0.000   0.000
  0.000   0.000   0.000   0.000   0.000
  0.000   0.000   0.000   0.000   0.000
  0.000   0.000   0.000   0.000   0.000
  0.000   0.000   0.000   0.000   0.000


----------------------------------------- Iteration    1(   4)  ---------------------------------------


     EDDAV:  cpu time    0.0336: real time    0.0316
       DOS:  cpu time    0.0001: real time    0.0001
    --------------------------------------------
      LOOP:  cpu time    0.0347: real time    0.0328

 eigenvalue-minimisations  :    24
 total energy-change (2. order) :-0.3656691E+00  (-0.3656691E+00)
 number of electron       8.0000000 magnetization 
 augmentation part        8.0000000 magnetization 

 Free energy of the ion-electron system (eV)
  ---------------------------------------------------
  alpha Z        PSCENC =         0.68708806
  Ewald energy   TEWEN  =        55.82276776
  -Hartree energ DENC   =      -270.20701651
  -exchange      EXHF   =         0.00000000
  -V(xc)+E(xc)   XCENC  =        26.53014519
  PAW double counting   =       211.33481392     -212.55243136
  entropy T*S    EENTRO =         0.01159581
  eigenvalues    EBANDS =      -136.02265073
  atomic energy  EATOM  =       301.91090041
  Solvation  Ediel_sol  =         0.00000000
  ---------------------------------------------------
  free energy    TOTEN  =       -22.48478745 eV

  energy without entropy =      -22.49638327  energy(sigma->0) =      -22.48865272


--------------------------------------------------------------------------------------------------------




 average (electrostatic) potential at core
  the test charge radii are     0.5201  0.7089
  (the norm of the test charge is              1.0000)
       1 -46.4907       2 -46.4903       3 -46.4907       4 -80.2338



 E-fermi : -10.0046     XC(G=0):  -2.0223     alpha+bet : -0.5051


 k-point     1 :       0.0000    0.0000    0.0000
  band No.  band energies     occupation 
      1     -25.5981      2.00000
      2     -16.1554      2.00000
      3     -16.0849      2.00000
      4     -10.1729      2.00000
      5      -1.9573      0.00000
      6       0.5600      0.00000
      7       0.8954      0.00000
      8       1.1963      0.00000


--------------------------------------------------------------------------------------------------------


 soft charge-density along one line, spin component           1
         0         1         2         3         4         5         6         7         8         9
 total charge-density along one line

 pseudopotential strength for first ion, spin component:           1
 -2.422  -4.185   0.001   0.000   0.001
 -4.185  -7.147   0.003   0.000   0.006
  0.001   0.003  -0.335  -0.000   0.004
  0.000   0.000  -0.000  -0.337  -0.000
  0.001   0.006   0.004  -0.000  -0.330
 total augmentation occupancy for first ion, spin component:           1
  1.000   0.000   0.000   0.000   0.000
  0.000   0.000   0.000   0.000   0.000
  0.000   0.000   0.000   0.000   0.000
  0.000   0.000   0.000   0.000   0.000
  0.000   0.000   0.000   0.000   0.000


----------------------------------------- Iteration    1(   5)  ---------------------------------------


     EDDAV:  cpu time    0.0547: real time    0.0504
       DOS:  cpu time    0.0001: real time    0.0001
    CHARGE:  cpu time    0.0132: real time    0.0134
    MIXING:  cpu time    0.0027: real time    0.0028
    --------------------------------------------
      LOOP:  cpu time    0.0714: real time    0.0673

 eigenvalue-minimisations  :    32
 total energy-change (2. order) :-0.4631315E-03  (-0.4631319E-03)
 number of electron       8.0000058 magnetization 
 augmentation part        0.4293955 magnetization 

 Broyden mixing:
  rms(total) = 0.92509E+00    rms(broyden)= 0.92386E+00
  rms(prec ) = 0.14431E+01
  weight for this iteration     100.00

 Free energy of the ion-electron system (eV)
  ---------------------------------------------------
  alpha Z        PSCENC =         0.68708806
  Ewald energy   TEWEN  =        55.82276776
  -Hartree energ DENC   =      -270.20701651
  -exchange      EXHF   =         0.00000000
  -V(xc)+E(xc)   XCENC  =        26.53014519
  PAW double counting   =       211.33481392     -212.55243136
  entropy T*S    EENTRO =         0.01159581
  eigenvalues    EBANDS =      -136.02311386
  atomic energy  EATOM  =       301.91090041
  Solvation  Ediel_sol  =         0.00000000
  ---------------------------------------------------
  free energy    TOTEN  =       -22.48525059 eV

  energy without entropy =      -22.49684640  energy(sigma->0) =      -22.48911586


--------------------------------------------------------------------------------------------------------




 average (electrostatic) potential at core
  the test charge radii are     0.5201  0.7089
  (the norm of the test charge is              1.0000)
       1 -46.4907       2 -46.4903       3 -46.4907       4 -80.2338



 E-fermi : -10.0047     XC(G=0):  -2.0223     alpha+bet : -0.5051


 k-point     1 :       0.0000    0.0000    0.0000
  band No.  band energies     occupation 
      1     -25.5981      2.00000
      2     -16.1554      2.00000
      3     -16.0850      2.00000
      4     -10.1731      2.00000
      5      -1.9574      0.00000
      6       0.5517      0.00000
      7       0.8942      0.00000
      8       1.1914      0.00000


--------------------------------------------------------------------------------------------------------


 soft charge-density along one line, spin component           1
         0         1         2         3         4         5         6         7         8         9
 total charge-density along one line

 pseudopotential strength for first ion, spin component:           1
 -2.422  -4.185   0.001   0.000   0.001
 -4.185  -7.147   0.003   0.000   0.006
  0.001   0.003  -0.335  -0.000   0.004
  0.000   0.000  -0.000  -0.337  -0.000
  0.001   0.006   0.004  -0.000  -0.330
 total augmentation occupancy for first ion, spin component:           1
  3.833  -0.840  -0.349   0.000  -0.592
 -0.840   0.201   0.075   0.000   0.129
 -0.349   0.075   0.041   0.000   0.049
  0.000   0.000   0.000   0.029   0.000
 -0.592   0.129   0.049   0.000   0.095


----------------------------------------- Iteration    1(   6)  ---------------------------------------


    POTLOK:  cpu time    0.0488: real time    0.0491
    SETDIJ:  cpu time    0.0012: real time    0.0012
    EDDIAG:  cpu time    0.0077: real time    0.0164
  RMM-DIIS:  cpu time    0.0230: real time    0.0218
    ORTHCH:  cpu time    0.0008: real time    0.0008
       DOS:  cpu time    0.0002: real time    0.0002
    CHARGE:  cpu time    0.0080: real time    0.0081
    MIXING:  cpu time    0.0020: real time    0.0036
    --------------------------------------------
      LOOP:  cpu time    0.0924: real time    0.1021

 eigenvalue-minimisations  :    16
 total energy-change (2. order) : 0.2935221E+01  (-0.8822213E+00)
 number of electron       8.0000048 magnetization 
 augmentation part        0.3445039 magnetization 

 Broyden mixing:
  rms(total) = 0.41151E+00    rms(broyden)= 0.41130E+00
  rms(prec ) = 0.53397E+00
  weight for this iteration     100.00

 eigenvalues of (default mixing * dielectric matrix)
  average eigenvalue GAMMA=   1.0214
  1.0214

 Free energy of the ion-electron system (eV)
  ---------------------------------------------------
  alpha Z        PSCENC =         0.68708806
  Ewald energy   TEWEN  =        55.82276776
  -Hartree energ DENC   =      -294.87743709
  -exchange      EXHF   =         0.00000000
  -V(xc)+E(xc)   XCENC  =        27.95000265
  PAW double counting   =       344.70771359     -346.21242812
  entropy T*S    EENTRO =         0.01159581
  eigenvalues    EBANDS =      -109.55023293
  atomic energy  EATOM  =       301.91090041
  Solvation  Ediel_sol  =         0.00000000
  ---------------------------------------------------
  free energy    TOTEN  =       -19.55002986 eV

  energy without entropy =      -19.56162567  energy(sigma->0) =      -19.55389513


--------------------------------------------------------------------------------------------------------




 average (electrostatic) potential at core
  the test charge radii are     0.5201  0.7089
  (the norm of the test charge is              1.0000)
       1 -45.0233       2 -45.0332       3 -45.0233       4 -73.6255



 E-fermi :  -6.3837     XC(G=0):  -2.1511     alpha+bet : -0.5051


 k-point     1 :       0.0000    0.0000    0.0000
  band No.  band energies     occupation 
      1     -22.0653      2.00000
      2     -13.1160      2.00000
      3     -13.0417      2.00000
      4      -6.5521      2.00000
      5      -1.7799     -0.00000
      6       0.7685      0.00000
      7       1.1809      0.00000
      8       1.1019      0.00000


--------------------------------------------------------------------------------------------------------


 soft charge-density along one line, spin component           1
         0         1         2         3         4         5         6         7         8         9
 total charge-density along one line

 pseudopotential strength for first ion, spin component:           1
 -2.397  -4.140   0.001   0.000   0.002
 -4.140  -7.064   0.004   0.000   0.006
  0.001   0.004  -0.333  -0.000   0.003
  0.000   0.000  -0.000  -0.335   0.000
  0.002   0.006   0.003   0.000  -0.330
 total augmentation occupancy for first ion, spin component:           1
  3.774  -0.748  -0.312   0.000  -0.529
 -0.748   0.169   0.062   0.000   0.105
 -0.312   0.062   0.035   0.000   0.039
  0.000   0.000   0.000   0.032   0.000
 -0.529   0.105   0.039   0.000   0.077


----------------------------------------- Iteration    1(   7)  ---------------------------------------


    POTLOK:  cpu time    0.0432: real time    0.0438
    SETDIJ:  cpu time    0.0009: real time    0.0009
    EDDIAG:  cpu time    0.0036: real time    0.0035
  RMM-DIIS:  cpu time    0.0201: real time    0.0187
    ORTHCH:  cpu time    0.0007: real time    0.0006
       DOS:  cpu time    0.0001: real time    0.0001
    CHARGE:  cpu time    0.0061: real time    0.0061
    MIXING:  cpu time    0.0021: real time    0.0028
    --------------------------------------------
      LOOP:  cpu time    0.0774: real time    0.0771

 eigenvalue-minimisations  :    16
 total energy-change (2. order) : 0.1969505E+00  (-0.6348521E-01)
 number of electron       8.0000046 magnetization 
 augmentation part        0.3279204 magnetization 

 Broyden mixing:
  rms(total) = 0.26886E+00    rms(broyden)= 0.26881E+00
  rms(prec ) = 0.32884E+00
  weight for this iteration     100.00

 eigenvalues of (default mixing * dielectric matrix)
  average eigenvalue GAMMA=   1.8056
  1.2409  2.3704

 Free energy of the ion-electron system (eV)
  ---------------------------------------------------
  alpha Z        PSCENC =         0.68708806
  Ewald energy   TEWEN  =        55.82276776
  -Hartree energ DENC   =      -302.16913377
  -exchange      EXHF   =         0.00000000
  -V(xc)+E(xc)   XCENC  =        28.41078117
  PAW double counting   =       452.76819104     -454.35591537
  entropy T*S    EENTRO =         0.01159581
  eigenvalues    EBANDS =      -102.43935450
  atomic energy  EATOM  =       301.91090041
  Solvation  Ediel_sol  =         0.00000000
  ---------------------------------------------------
  free energy    TOTEN  =       -19.35307939 eV

  energy without entropy =      -19.36467520  energy(sigma->0) =      -19.35694466


--------------------------------------------------------------------------------------------------------




 average (electrostatic) potential at core
  the test charge radii are     0.5201  0.7089
  (the norm of the test charge is              1.0000)
       1 -44.1660       2 -44.1649       3 -44.1660       4 -72.4926



 E-fermi :  -5.5331     XC(G=0):  -2.1198     alpha+bet : -0.5051


 k-point     1 :       0.0000    0.0000    0.0000
  band No.  band energies     occupation 
      1     -21.1109      2.00000
      2     -12.2398      2.00000
      3     -12.1676      2.00000
      4      -5.7015      2.00000
      5      -1.5880     -0.00000
      6       0.8963      0.00000
      7       1.3288      0.00000
      8       1.2605      0.00000


--------------------------------------------------------------------------------------------------------


 soft charge-density along one line, spin component           1
         0         1         2         3         4         5         6         7         8         9
 total charge-density along one line

 pseudopotential strength for first ion, spin component:           1
 -2.382  -4.111   0.001   0.000   0.002
 -4.111  -7.011   0.004   0.000   0.006
  0.001   0.004  -0.331   0.000   0.003
  0.000   0.000   0.000  -0.333   0.000
  0.002   0.006   0.003   0.000  -0.327
 total augmentation occupancy for first ion, spin component:           1
  3.778  -0.740  -0.302   0.000  -0.512
 -0.740   0.165   0.059   0.000   0.101
 -0.302   0.059   0.033   0.000   0.036
  0.000   0.000   0.000   0.033   0.000
 -0.512   0.101   0.036   0.000   0.072


----------------------------------------- Iteration    1(   8)  ---------------------------------------


    POTLOK:  cpu time    0.0397: real time    0.0398
    SETDIJ:  cpu time    0.0012: real time    0.0013
    EDDIAG:  cpu time    0.0036: real time    0.0035
  RMM-DIIS:  cpu time    0.0207: real time    0.0188
    ORTHCH:  cpu time    0.0009: real time    0.0007
       DOS:  cpu time    0.0001: real time    0.0001
    CHARGE:  cpu time    0.0056: real time    0.0056
    MIXING:  cpu time    0.0014: real time    0.0014
    --------------------------------------------
      LOOP:  cpu time    0.0737: real time    0.0718

 eigenvalue-minimisations  :    16
 total energy-change (2. order) : 0.9848561E-01  (-0.1476473E-01)
 number of electron       8.0000046 magnetization 
 augmentation part        0.3306680 magnetization 

 Broyden mixing:
  rms(total) = 0.45121E-01    rms(broyden)= 0.45110E-01
  rms(prec ) = 0.75304E-01
  weight for this iteration     100.00

 eigenvalues of (default mixing * dielectric matrix)
  average eigenvalue GAMMA=   1.4402
  2.3258  1.1633  0.8316

 Free energy of the ion-electron system (eV)
  ---------------------------------------------------
  alpha Z        PSCENC =         0.68708806
  Ewald energy   TEWEN  =        55.82276776
  -Hartree energ DENC   =      -306.24873359
  -exchange      EXHF   =         0.00000000
  -V(xc)+E(xc)   XCENC  =        28.74392932
  PAW double counting   =       601.88019472     -603.51039325
  entropy T*S    EENTRO =         0.01159581
  eigenvalues    EBANDS =       -98.55194303
  atomic energy  EATOM  =       301.91090041
  Solvation  Ediel_sol  =         0.00000000
  ---------------------------------------------------
  free energy    TOTEN  =       -19.25459378 eV

  energy without entropy =      -19.26618959  energy(sigma->0) =      -19.25845905


--------------------------------------------------------------------------------------------------------




 average (electrostatic) potential at core
  the test charge radii are     0.5201  0.7089
  (the norm of the test charge is              1.0000)
       1 -43.1328       2 -43.1391       3 -43.1328       4 -72.7638



 E-fermi :  -5.1885     XC(G=0):  -2.0008     alpha+bet : -0.5051


 k-point     1 :       0.0000    0.0000    0.0000
  band No.  band energies     occupation 
      1     -20.6165      2.00000
      2     -11.6878      2.00000
      3     -11.6148      2.00000
      4      -5.3568      2.00000
      5      -1.4586     -0.00000
      6       1.0613      0.00000
      7       1.3971      0.00000
      8       1.4362      0.00000


--------------------------------------------------------------------------------------------------------


 soft charge-density along one line, spin component           1
         0         1         2         3         4         5         6         7         8         9
 total charge-density along one line

 pseudopotential strength for first ion, spin component:           1
 -2.363  -4.076   0.001   0.000   0.002
 -4.076  -6.945   0.004   0.000   0.006
  0.001   0.004  -0.329   0.000   0.003
  0.000   0.000   0.000  -0.331   0.000
  0.002   0.006   0.003   0.000  -0.325
 total augmentation occupancy for first ion, spin component:           1
  3.833  -0.773  -0.301   0.000  -0.512
 -0.773   0.174   0.061   0.000   0.104
 -0.301   0.061   0.032   0.000   0.035
  0.000   0.000   0.000   0.032   0.000
 -0.512   0.104   0.035   0.000   0.071


----------------------------------------- Iteration    1(   9)  ---------------------------------------


    POTLOK:  cpu time    0.0407: real time    0.0409
    SETDIJ:  cpu time    0.0008: real time    0.0008
    EDDIAG:  cpu time    0.0034: real time    0.0035
  RMM-DIIS:  cpu time    0.0194: real time    0.0200
    ORTHCH:  cpu time    0.0007: real time    0.0006
       DOS:  cpu time    0.0001: real time    0.0001
    CHARGE:  cpu time    0.0077: real time    0.0078
    MIXING:  cpu time    0.0014: real time    0.0014
    --------------------------------------------
      LOOP:  cpu time    0.0750: real time    0.0759

 eigenvalue-minimisations  :    16
 total energy-change (2. order) : 0.3133452E-02  (-0.2210146E-02)
 number of electron       8.0000046 magnetization 
 augmentation part        0.3272206 magnetization 

 Broyden mixing:
  rms(total) = 0.23435E-01    rms(broyden)= 0.23416E-01
  rms(prec ) = 0.42278E-01
  weight for this iteration     100.00

 eigenvalues of (default mixing * dielectric matrix)
  average eigenvalue GAMMA=   1.8829
  1.0905  1.0905  2.6754  2.6754

 Free energy of the ion-electron system (eV)
  ---------------------------------------------------
  alpha Z        PSCENC =         0.68708806
  Ewald energy   TEWEN  =        55.82276776
  -Hartree energ DENC   =      -307.56185483
  -exchange      EXHF   =         0.00000000
  -V(xc)+E(xc)   XCENC  =        28.81230636
  PAW double counting   =       600.09227483     -601.73209550
  entropy T*S    EENTRO =         0.01159581
  eigenvalues    EBANDS =       -97.29444323
  atomic energy  EATOM  =       301.91090041
  Solvation  Ediel_sol  =         0.00000000
  ---------------------------------------------------
  free energy    TOTEN  =       -19.25146033 eV

  energy without entropy =      -19.26305614  energy(sigma->0) =      -19.25532560


--------------------------------------------------------------------------------------------------------




 average (electrostatic) potential at core
  the test charge radii are     0.5201  0.7089
  (the norm of the test charge is              1.0000)
       1 -43.0552       2 -43.0655       3 -43.0552       4 -72.4497



 E-fermi :  -5.0163     XC(G=0):  -1.9745     alpha+bet : -0.5051


 k-point     1 :       0.0000    0.0000    0.0000
  band No.  band energies     occupation 
      1     -20.4446      2.00000
      2     -11.5458      2.00000
      3     -11.4722      2.00000
      4      -5.1847      2.00000
      5      -1.3919     -0.00000
      6       1.0979      0.00000
      7       1.4281      0.00000
      8       1.4710      0.00000


--------------------------------------------------------------------------------------------------------


 soft charge-density along one line, spin component           1
         0         1         2         3         4         5         6         7         8         9
 total charge-density along one line

 pseudopotential strength for first ion, spin component:           1
 -2.362  -4.074   0.001   0.000   0.002
 -4.074  -6.942   0.004   0.000   0.006
  0.001   0.004  -0.329   0.000   0.003
  0.000   0.000   0.000  -0.331   0.000
  0.002   0.006   0.003   0.000  -0.326
 total augmentation occupancy for first ion, spin component:           1
  3.838  -0.774  -0.300   0.000  -0.509
 -0.774   0.175   0.061   0.000   0.103
 -0.300   0.061   0.032   0.000   0.035
  0.000   0.000   0.000   0.032   0.000
 -0.509   0.103   0.035   0.000   0.071


----------------------------------------- Iteration    1(  10)  ---------------------------------------


    POTLOK:  cpu time    0.0375: real time    0.0376
    SETDIJ:  cpu time    0.0008: real time    0.0009
    EDDIAG:  cpu time    0.0034: real time    0.0034
  RMM-DIIS:  cpu time    0.0202: real time    0.0211
    ORTHCH:  cpu time    0.0009: real time    0.0007
       DOS:  cpu time    0.0001: real time    0.0001
    CHARGE:  cpu time    0.0055: real time    0.0055
    MIXING:  cpu time    0.0015: real time    0.0015
    --------------------------------------------
      LOOP:  cpu time    0.0707: real time    0.0716

 eigenvalue-minimisations  :    16
 total energy-change (2. order) :-0.1002547E-01  (-0.1444913E-02)
 number of electron       8.0000046 magnetization 
 augmentation part        0.3249907 magnetization 

 Broyden mixing:
  rms(total) = 0.30107E-01    rms(broyden)= 0.30102E-01
  rms(prec ) = 0.36570E-01
  weight for this iteration     100.00

 eigenvalues of (default mixing * dielectric matrix)
  average eigenvalue GAMMA=   1.7330
  3.0846  2.4119  1.0644  1.0644  1.0396

 Free energy of the ion-electron system (eV)
  ---------------------------------------------------
  alpha Z        PSCENC =         0.68708806
  Ewald energy   TEWEN  =        55.82276776
  -Hartree energ DENC   =      -308.56336330
  -exchange      EXHF   =         0.00000000
  -V(xc)+E(xc)   XCENC  =        28.83993072
  PAW double counting   =       575.05703868     -576.69085527
  entropy T*S    EENTRO =         0.01159581
  eigenvalues    EBANDS =       -96.33658868
  atomic energy  EATOM  =       301.91090041
  Solvation  Ediel_sol  =         0.00000000
  ---------------------------------------------------
  free energy    TOTEN  =       -19.26148580 eV

  energy without entropy =      -19.27308161  energy(sigma->0) =      -19.26535107


--------------------------------------------------------------------------------------------------------




 average (electrostatic) potential at core
  the test charge radii are     0.5201  0.7089
  (the norm of the test charge is              1.0000)
       1 -42.9945       2 -43.0131       3 -42.9945       4 -72.2664



 E-fermi :  -4.8759     XC(G=0):  -1.8192     alpha+bet : -0.5051


 k-point     1 :       0.0000    0.0000    0.0000
  band No.  band energies     occupation 
      1     -20.3173      2.00000
      2     -11.4406      2.00000
      3     -11.3661      2.00000
      4      -5.0443      2.00000
      5      -1.2302     -0.00000
      6       1.2484      0.00000
      7       1.5666      0.00000
      8       1.6475      0.00000


--------------------------------------------------------------------------------------------------------


 soft charge-density along one line, spin component           1
         0         1         2         3         4         5         6         7         8         9
 total charge-density along one line

 pseudopotential strength for first ion, spin component:           1
 -2.362  -4.074   0.001   0.000   0.002
 -4.074  -6.941   0.004   0.000   0.006
  0.001   0.004  -0.329   0.000   0.003
  0.000   0.000   0.000  -0.332   0.000
  0.002   0.006   0.003   0.000  -0.326
 total augmentation occupancy for first ion, spin component:           1
  3.833  -0.770  -0.299   0.000  -0.507
 -0.770   0.173   0.060   0.000   0.103
 -0.299   0.060   0.032   0.000   0.034
  0.000   0.000   0.000   0.032   0.000
 -0.507   0.103   0.034   0.000   0.070


----------------------------------------- Iteration    1(  11)  ---------------------------------------


    POTLOK:  cpu time    0.0406: real time    0.0409
    SETDIJ:  cpu time    0.0010: real time    0.0010
    EDDIAG:  cpu time    0.0041: real time    0.0040
  RMM-DIIS:  cpu time    0.0207: real time    0.0179
    ORTHCH:  cpu time    0.0008: real time    0.0006
       DOS:  cpu time    0.0001: real time    0.0001
    CHARGE:  cpu time    0.0057: real time    0.0057
    MIXING:  cpu time    0.0015: real time    0.0015
    --------------------------------------------
      LOOP:  cpu time    0.0750: real time    0.0723

 eigenvalue-minimisations  :    16
 total energy-change (2. order) : 0.4231570E-04  (-0.2059804E-03)
 number of electron       8.0000046 magnetization 
 augmentation part        0.3256063 magnetization 

 Broyden mixing:
  rms(total) = 0.69785E-02    rms(broyden)= 0.69776E-02
  rms(prec ) = 0.11393E-01
  weight for this iteration     100.00

 eigenvalues of (default mixing * dielectric matrix)
  average eigenvalue GAMMA=   2.0997
  3.9984  2.9010  2.5338  1.0967  1.0967  0.9716

 Free energy of the ion-electron system (eV)
  ---------------------------------------------------
  alpha Z        PSCENC =         0.68708806
  Ewald energy   TEWEN  =        55.82276776
  -Hartree energ DENC   =      -308.60070057
  -exchange      EXHF   =         0.00000000
  -V(xc)+E(xc)   XCENC  =        28.84988625
  PAW double counting   =       585.59471259     -587.22945742
  entropy T*S    EENTRO =         0.01159581
  eigenvalues    EBANDS =       -96.30823637
  atomic energy  EATOM  =       301.91090041
  Solvation  Ediel_sol  =         0.00000000
  ---------------------------------------------------
  free energy    TOTEN  =       -19.26144348 eV

  energy without entropy =      -19.27303930  energy(sigma->0) =      -19.26530875


--------------------------------------------------------------------------------------------------------




 average (electrostatic) potential at core
  the test charge radii are     0.5201  0.7089
  (the norm of the test charge is              1.0000)
       1 -42.9368       2 -42.9554       3 -42.9368       4 -72.3429



 E-fermi :  -4.8852     XC(G=0):  -1.7978     alpha+bet : -0.5051


 k-point     1 :       0.0000    0.0000    0.0000
  band No.  band energies     occupation 
      1     -20.3163      2.00000
      2     -11.4294      2.00000
      3     -11.3548      2.00000
      4      -5.0536      2.00000
      5      -1.2067     -0.00000
      6       1.2759      0.00000
      7       1.5816      0.00000
      8       1.6694      0.00000


--------------------------------------------------------------------------------------------------------


 soft charge-density along one line, spin component           1
         0         1         2         3         4         5         6         7         8         9
 total charge-density along one line

 pseudopotential strength for first ion, spin component:           1
 -2.361  -4.072   0.001   0.000   0.002
 -4.072  -6.937   0.004   0.000   0.006
  0.001   0.004  -0.329   0.000   0.003
  0.000   0.000   0.000  -0.332   0.000
  0.002   0.006   0.003   0.000  -0.326
 total augmentation occupancy for first ion, spin component:           1
  3.836  -0.772  -0.299   0.000  -0.508
 -0.772   0.174   0.060   0.000   0.103
 -0.299   0.060   0.032   0.000   0.035
  0.000   0.000   0.000   0.032   0.000
 -0.508   0.103   0.035   0.000   0.070


----------------------------------------- Iteration    1(  12)  ---------------------------------------


    POTLOK:  cpu time    0.0374: real time    0.0375
    SETDIJ:  cpu time    0.0010: real time    0.0010
    EDDIAG:  cpu time    0.0042: real time    0.0042
  RMM-DIIS:  cpu time    0.0195: real time    0.0209
    ORTHCH:  cpu time    0.0008: real time    0.0007
       DOS:  cpu time    0.0002: real time    0.0002
    CHARGE:  cpu time    0.0057: real time    0.0058
    MIXING:  cpu time    0.0015: real time    0.0015
    --------------------------------------------
      LOOP:  cpu time    0.0709: real time    0.0723

 eigenvalue-minimisations  :    16
 total energy-change (2. order) :-0.3760248E-02  (-0.4190374E-03)
 number of electron       8.0000046 magnetization 
 augmentation part        0.3269813 magnetization 

 Broyden mixing:
  rms(total) = 0.11219E-01    rms(broyden)= 0.11215E-01
  rms(prec ) = 0.15139E-01
  weight for this iteration     100.00

 eigenvalues of (default mixing * dielectric matrix)
  average eigenvalue GAMMA=   1.8752
  4.0493  2.5706  2.5466  1.1005  1.1005  0.9374  0.8217

 Free energy of the ion-electron system (eV)
  ---------------------------------------------------
  alpha Z        PSCENC =         0.68708806
  Ewald energy   TEWEN  =        55.82276776
  -Hartree energ DENC   =      -308.33096982
  -exchange      EXHF   =         0.00000000
  -V(xc)+E(xc)   XCENC  =        28.83272684
  PAW double counting   =       587.84400813     -589.47644714
  entropy T*S    EENTRO =         0.01159581
  eigenvalues    EBANDS =       -96.56687377
  atomic energy  EATOM  =       301.91090041
  Solvation  Ediel_sol  =         0.00000000
  ---------------------------------------------------
  free energy    TOTEN  =       -19.26520373 eV

  energy without entropy =      -19.27679954  energy(sigma->0) =      -19.26906900


--------------------------------------------------------------------------------------------------------




 average (electrostatic) potential at core
  the test charge radii are     0.5201  0.7089
  (the norm of the test charge is              1.0000)
       1 -42.9313       2 -42.9488       3 -42.9313       4 -72.4333



 E-fermi :  -4.9265     XC(G=0):  -1.7016     alpha+bet : -0.5051


 k-point     1 :       0.0000    0.0000    0.0000
  band No.  band energies     occupation 
      1     -20.3532      2.00000
      2     -11.4551      2.00000
      3     -11.3802      2.00000
      4      -5.0949      2.00000
      5      -1.1351     -0.00000
      6       1.3693      0.00000
      7       1.6558      0.00000
      8       1.7359      0.00000


--------------------------------------------------------------------------------------------------------


 soft charge-density along one line, spin component           1
         0         1         2         3         4         5         6         7         8         9
 total charge-density along one line

 pseudopotential strength for first ion, spin component:           1
 -2.361  -4.071   0.001   0.000   0.002
 -4.071  -6.937   0.004   0.000   0.006
  0.001   0.004  -0.329   0.000   0.003
  0.000   0.000   0.000  -0.332   0.000
  0.002   0.006   0.003   0.000  -0.326
 total augmentation occupancy for first ion, spin component:           1
  3.839  -0.775  -0.300   0.000  -0.509
 -0.775   0.175   0.061   0.000   0.104
 -0.300   0.061   0.032   0.000   0.035
  0.000   0.000   0.000   0.032   0.000
 -0.509   0.104   0.035   0.000   0.071


----------------------------------------- Iteration    1(  13)  ---------------------------------------


    POTLOK:  cpu time    0.0400: real time    0.0402
    SETDIJ:  cpu time    0.0013: real time    0.0013
    EDDIAG:  cpu time    0.0048: real time    0.0046
  RMM-DIIS:  cpu time    0.0204: real time    0.0189
    ORTHCH:  cpu time    0.0009: real time    0.0007
       DOS:  cpu time    0.0001: real time    0.0001
    CHARGE:  cpu time    0.0058: real time    0.0058
    MIXING:  cpu time    0.0016: real time    0.0016
    --------------------------------------------
      LOOP:  cpu time    0.0758: real time    0.0742

 eigenvalue-minimisations  :    16
 total energy-change (2. order) : 0.1476642E-03  (-0.5967396E-04)
 number of electron       8.0000046 magnetization 
 augmentation part        0.3263868 magnetization 

 Broyden mixing:
  rms(total) = 0.36832E-02    rms(broyden)= 0.36822E-02
  rms(prec ) = 0.48675E-02
  weight for this iteration     100.00

 eigenvalues of (default mixing * dielectric matrix)
  average eigenvalue GAMMA=   2.0389
  4.6410  3.0493  2.4832  1.8627  1.1967  1.1967  0.9713  0.9099

 Free energy of the ion-electron system (eV)
  ---------------------------------------------------
  alpha Z        PSCENC =         0.68708806
  Ewald energy   TEWEN  =        55.82276776
  -Hartree energ DENC   =      -308.49911655
  -exchange      EXHF   =         0.00000000
  -V(xc)+E(xc)   XCENC  =        28.84081956
  PAW double counting   =       586.79565631     -588.42958517
  entropy T*S    EENTRO =         0.01159581
  eigenvalues    EBANDS =       -96.40518226
  atomic energy  EATOM  =       301.91090041
  Solvation  Ediel_sol  =         0.00000000
  ---------------------------------------------------
  free energy    TOTEN  =       -19.26505607 eV

  energy without entropy =      -19.27665188  energy(sigma->0) =      -19.26892134


--------------------------------------------------------------------------------------------------------




 average (electrostatic) potential at core
  the test charge radii are     0.5201  0.7089
  (the norm of the test charge is              1.0000)
       1 -42.9312       2 -42.9485       3 -42.9312       4 -72.3785



 E-fermi :  -4.9024     XC(G=0):  -1.7064     alpha+bet : -0.5051


 k-point     1 :       0.0000    0.0000    0.0000
  band No.  band energies     occupation 
      1     -20.3305      2.00000
      2     -11.4381      2.00000
      3     -11.3632      2.00000
      4      -5.0708      2.00000
      5      -1.1305     -0.00000
      6       1.3678      0.00000
      7       1.6546      0.00000
      8       1.7296      0.00000


--------------------------------------------------------------------------------------------------------


 soft charge-density along one line, spin component           1
         0         1         2         3         4         5         6         7         8         9
 total charge-density along one line

 pseudopotential strength for first ion, spin component:           1
 -2.361  -4.072   0.001   0.000   0.002
 -4.072  -6.937   0.004   0.000   0.006
  0.001   0.004  -0.329   0.000   0.003
  0.000   0.000   0.000  -0.332   0.000
  0.002   0.006   0.003   0.000  -0.326
 total augmentation occupancy for first ion, spin component:           1
  3.839  -0.774  -0.300   0.000  -0.509
 -0.774   0.175   0.061   0.000   0.103
 -0.300   0.061   0.032   0.000   0.035
  0.000   0.000   0.000   0.032   0.000
 -0.509   0.103   0.035   0.000   0.070


----------------------------------------- Iteration    1(  14)  ---------------------------------------


    POTLOK:  cpu time    0.0450: real time    0.0457
    SETDIJ:  cpu time    0.0011: real time    0.0011
    EDDIAG:  cpu time    0.0036: real time    0.0035
  RMM-DIIS:  cpu time    0.0196: real time    0.0182
    ORTHCH:  cpu time    0.0008: real time    0.0007
       DOS:  cpu time    0.0001: real time    0.0001
    CHARGE:  cpu time    0.0066: real time    0.0066
    MIXING:  cpu time    0.0017: real time    0.0017
    --------------------------------------------
      LOOP:  cpu time    0.0794: real time    0.0784

 eigenvalue-minimisations  :    16
 total energy-change (2. order) :-0.4024783E-03  (-0.5255392E-04)
 number of electron       8.0000046 magnetization 
 augmentation part        0.3258861 magnetization 

 Broyden mixing:
  rms(total) = 0.26309E-02    rms(broyden)= 0.26279E-02
  rms(prec ) = 0.37352E-02
  weight for this iteration     100.00

 eigenvalues of (default mixing * dielectric matrix)
  average eigenvalue GAMMA=   2.0604
  5.0606  3.4830  2.3967  2.3967  1.1454  1.1454  0.9743  0.9707  0.9707

 Free energy of the ion-electron system (eV)
  ---------------------------------------------------
  alpha Z        PSCENC =         0.68708806
  Ewald energy   TEWEN  =        55.82276776
  -Hartree energ DENC   =      -308.56551346
  -exchange      EXHF   =         0.00000000
  -V(xc)+E(xc)   XCENC  =        28.84326509
  PAW double counting   =       586.12345459     -587.75802359
  entropy T*S    EENTRO =         0.01159581
  eigenvalues    EBANDS =       -96.34099322
  atomic energy  EATOM  =       301.91090041
  Solvation  Ediel_sol  =         0.00000000
  ---------------------------------------------------
  free energy    TOTEN  =       -19.26545855 eV

  energy without entropy =      -19.27705436  energy(sigma->0) =      -19.26932382


--------------------------------------------------------------------------------------------------------




 average (electrostatic) potential at core
  the test charge radii are     0.5201  0.7089
  (the norm of the test charge is              1.0000)
       1 -42.9365       2 -42.9533       3 -42.9365       4 -72.3503



 E-fermi :  -4.8919     XC(G=0):  -1.6903     alpha+bet : -0.5051


 k-point     1 :       0.0000    0.0000    0.0000
  band No.  band energies     occupation 
      1     -20.3211      2.00000
      2     -11.4322      2.00000
      3     -11.3570      2.00000
      4      -5.0603      2.00000
      5      -1.1266     -0.00000
      6       1.3856      0.00000
      7       1.6636      0.00000
      8       1.7145      0.00000


--------------------------------------------------------------------------------------------------------


 soft charge-density along one line, spin component           1
         0         1         2         3         4         5         6         7         8         9
 total charge-density along one line

 pseudopotential strength for first ion, spin component:           1
 -2.361  -4.072   0.001   0.000   0.002
 -4.072  -6.937   0.004   0.000   0.006
  0.001   0.004  -0.329   0.000   0.003
  0.000   0.000   0.000  -0.332   0.000
  0.002   0.006   0.003   0.000  -0.326
 total augmentation occupancy for first ion, spin component:           1
  3.837  -0.773  -0.299   0.000  -0.508
 -0.773   0.174   0.061   0.000   0.103
 -0.299   0.061   0.032   0.000   0.035
  0.000   0.000   0.000   0.032   0.000
 -0.508   0.103   0.035   0.000   0.070


----------------------------------------- Iteration    1(  15)  ---------------------------------------


    POTLOK:  cpu time    0.0463: real time    0.0468
    SETDIJ:  cpu time    0.0014: real time    0.0016
    EDDIAG:  cpu time    0.0060: real time    0.0065
  RMM-DIIS:  cpu time    0.0231: real time    0.0217
    ORTHCH:  cpu time    0.0010: real time    0.0009
       DOS:  cpu time    0.0001: real time    0.0001
    CHARGE:  cpu time    0.0082: real time    0.0083
    MIXING:  cpu time    0.0020: real time    0.0020
    --------------------------------------------
      LOOP:  cpu time    0.0888: real time    0.0887

 eigenvalue-minimisations  :    16
 total energy-change (2. order) :-0.1695088E-04  (-0.5393170E-05)
 number of electron       8.0000046 magnetization 
 augmentation part        0.3260056 magnetization 

 Broyden mixing:
  rms(total) = 0.94961E-03    rms(broyden)= 0.94947E-03
  rms(prec ) = 0.13018E-02
  weight for this iteration     100.00

 eigenvalues of (default mixing * dielectric matrix)
  average eigenvalue GAMMA=   2.1204
  5.2315  3.4834  2.7935  2.5732  1.7945  1.2364  1.2364  0.9955  0.9297  0.9297

 Free energy of the ion-electron system (eV)
  ---------------------------------------------------
  alpha Z        PSCENC =         0.68708806
  Ewald energy   TEWEN  =        55.82276776
  -Hartree energ DENC   =      -308.50519626
  -exchange      EXHF   =         0.00000000
  -V(xc)+E(xc)   XCENC  =        28.84007817
  PAW double counting   =       586.11749282     -587.75149018
  entropy T*S    EENTRO =         0.01159581
  eigenvalues    EBANDS =       -96.39871208
  atomic energy  EATOM  =       301.91090041
  Solvation  Ediel_sol  =         0.00000000
  ---------------------------------------------------
  free energy    TOTEN  =       -19.26547550 eV

  energy without entropy =      -19.27707131  energy(sigma->0) =      -19.26934077


--------------------------------------------------------------------------------------------------------




 average (electrostatic) potential at core
  the test charge radii are     0.5201  0.7089
  (the norm of the test charge is              1.0000)
       1 -42.9388       2 -42.9562       3 -42.9388       4 -72.3673



 E-fermi :  -4.8998     XC(G=0):  -1.6758     alpha+bet : -0.5051


 k-point     1 :       0.0000    0.0000    0.0000
  band No.  band energies     occupation 
      1     -20.3291      2.00000
      2     -11.4387      2.00000
      3     -11.3634      2.00000
      4      -5.0682      2.00000
      5      -1.1207     -0.00000
      6       1.4015      0.00000
      7       1.6699      0.00000
      8       1.7099      0.00000


--------------------------------------------------------------------------------------------------------


 soft charge-density along one line, spin component           1
         0         1         2         3         4         5         6         7         8         9
 total charge-density along one line

 pseudopotential strength for first ion, spin component:           1
 -2.361  -4.072   0.001   0.000   0.002
 -4.072  -6.937   0.004   0.000   0.006
  0.001   0.004  -0.329   0.000   0.003
  0.000   0.000   0.000  -0.332   0.000
  0.002   0.006   0.003   0.000  -0.326
 total augmentation occupancy for first ion, spin component:           1
  3.837  -0.773  -0.299   0.000  -0.508
 -0.773   0.174   0.061   0.000   0.103
 -0.299   0.061   0.032   0.000   0.035
  0.000   0.000   0.000   0.032   0.000
 -0.508   0.103   0.035   0.000   0.070


----------------------------------------- Iteration    1(  16)  ---------------------------------------


    POTLOK:  cpu time    0.0461: real time    0.0464
    SETDIJ:  cpu time    0.0009: real time    0.0009
    EDDIAG:  cpu time    0.0036: real time    0.0037
  RMM-DIIS:  cpu time    0.0205: real time    0.0186
    ORTHCH:  cpu time    0.0009: real time    0.0007
       DOS:  cpu time    0.0001: real time    0.0001
    CHARGE:  cpu time    0.0084: real time    0.0090
    MIXING:  cpu time    0.0025: real time    0.0026
    --------------------------------------------
      LOOP:  cpu time    0.0838: real time    0.0828

 eigenvalue-minimisations  :    16
 total energy-change (2. order) :-0.2471014E-04  (-0.5422669E-05)
 number of electron       8.0000046 magnetization 
 augmentation part        0.3261735 magnetization 

 Broyden mixing:
  rms(total) = 0.94338E-03    rms(broyden)= 0.94278E-03
  rms(prec ) = 0.13184E-02
  weight for this iteration     100.00

 eigenvalues of (default mixing * dielectric matrix)
  average eigenvalue GAMMA=   2.0456
  5.3897  3.7953  2.9439  2.3027  2.0852  1.2162  1.2162  0.9675  0.9675  0.9270
  0.6901

 Free energy of the ion-electron system (eV)
  ---------------------------------------------------
  alpha Z        PSCENC =         0.68708806
  Ewald energy   TEWEN  =        55.82276776
  -Hartree energ DENC   =      -308.46996347
  -exchange      EXHF   =         0.00000000
  -V(xc)+E(xc)   XCENC  =        28.83855557
  PAW double counting   =       586.22933298     -587.86310084
  entropy T*S    EENTRO =         0.01159581
  eigenvalues    EBANDS =       -96.43267648
  atomic energy  EATOM  =       301.91090041
  Solvation  Ediel_sol  =         0.00000000
  ---------------------------------------------------
  free energy    TOTEN  =       -19.26550021 eV

  energy without entropy =      -19.27709602  energy(sigma->0) =      -19.26936548


--------------------------------------------------------------------------------------------------------




 average (electrostatic) potential at core
  the test charge radii are     0.5201  0.7089
  (the norm of the test charge is              1.0000)
       1 -42.9392       2 -42.9575       3 -42.9392       4 -72.3779



 E-fermi :  -4.9046     XC(G=0):  -1.6909     alpha+bet : -0.5051


 k-point     1 :       0.0000    0.0000    0.0000
  band No.  band energies     occupation 
      1     -20.3338      2.00000
      2     -11.4425      2.00000
      3     -11.3671      2.00000
      4      -5.0730      2.00000
      5      -1.1281     -0.00000
      6       1.3786      0.00000
      7       1.6665      0.00000
      8       1.6978      0.00000


--------------------------------------------------------------------------------------------------------


 soft charge-density along one line, spin component           1
         0         1         2         3         4         5         6         7         8         9
 total charge-density along one line

 pseudopotential strength for first ion, spin component:           1
 -2.361  -4.072   0.001   0.000   0.002
 -4.072  -6.937   0.004   0.000   0.006
  0.001   0.004  -0.329   0.000   0.003
  0.000   0.000   0.000  -0.332   0.000
  0.002   0.006   0.003   0.000  -0.326
 total augmentation occupancy for first ion, spin component:           1
  3.838  -0.773  -0.299   0.000  -0.508
 -0.773   0.174   0.061   0.000   0.103
 -0.299   0.061   0.032   0.000   0.035
  0.000   0.000   0.000   0.032   0.000
 -0.508   0.103   0.035   0.000   0.070


----------------------------------------- Iteration    1(  17)  ---------------------------------------


    POTLOK:  cpu time    0.0388: real time    0.0389
    SETDIJ:  cpu time    0.0009: real time    0.0009
    EDDIAG:  cpu time    0.0036: real time    0.0035
  RMM-DIIS:  cpu time    0.0198: real time    0.0184
    ORTHCH:  cpu time    0.0008: real time    0.0006
       DOS:  cpu time    0.0001: real time    0.0001
    CHARGE:  cpu time    0.0056: real time    0.0056
    MIXING:  cpu time    0.0019: real time    0.0019
    --------------------------------------------
      LOOP:  cpu time    0.0721: real time    0.0706

 eigenvalue-minimisations  :    16
 total energy-change (2. order) :-0.4012272E-06  (-0.1900733E-06)
 number of electron       8.0000046 magnetization 
 augmentation part        0.3261463 magnetization 

 Broyden mixing:
  rms(total) = 0.63162E-03    rms(broyden)= 0.63161E-03
  rms(prec ) = 0.83832E-03
  weight for this iteration     100.00

 eigenvalues of (default mixing * dielectric matrix)
  average eigenvalue GAMMA=   2.1736
  5.6978  4.2543  3.3172  2.6047  2.4101  1.3604  1.3604  1.1528  1.1528  0.9971
  0.8878  0.8878

 Free energy of the ion-electron system (eV)
  ---------------------------------------------------
  alpha Z        PSCENC =         0.68708806
  Ewald energy   TEWEN  =        55.82276776
  -Hartree energ DENC   =      -308.48131859
  -exchange      EXHF   =         0.00000000
  -V(xc)+E(xc)   XCENC  =        28.83920724
  PAW double counting   =       586.27531370     -587.90921825
  entropy T*S    EENTRO =         0.01159581
  eigenvalues    EBANDS =       -96.42183675
  atomic energy  EATOM  =       301.91090041
  Solvation  Ediel_sol  =         0.00000000
  ---------------------------------------------------
  free energy    TOTEN  =       -19.26550061 eV

  energy without entropy =      -19.27709642  energy(sigma->0) =      -19.26936588


--------------------------------------------------------------------------------------------------------




 average (electrostatic) potential at core
  the test charge radii are     0.5201  0.7089
  (the norm of the test charge is              1.0000)
       1 -42.9389       2 -42.9569       3 -42.9389       4 -72.3745



 E-fermi :  -4.9031     XC(G=0):  -1.6944     alpha+bet : -0.5051


 k-point     1 :       0.0000    0.0000    0.0000
  band No.  band energies     occupation 
      1     -20.3323      2.00000
      2     -11.4413      2.00000
      3     -11.3659      2.00000
      4      -5.0715      2.00000
      5      -1.1296     -0.00000
      6       1.3747      0.00000
      7       1.6646      0.00000
      8       1.6964      0.00000


--------------------------------------------------------------------------------------------------------


 soft charge-density along one line, spin component           1
         0         1         2         3         4         5         6         7         8         9
 total charge-density along one line

 pseudopotential strength for first ion, spin component:           1
 -2.361  -4.072   0.001   0.000   0.002
 -4.072  -6.937   0.004   0.000   0.006
  0.001   0.004  -0.329   0.000   0.003
  0.000   0.000   0.000  -0.332   0.000
  0.002   0.006   0.003   0.000  -0.326
 total augmentation occupancy for first ion, spin component:           1
  3.838  -0.773  -0.299   0.000  -0.508
 -0.773   0.174   0.061   0.000   0.103
 -0.299   0.061   0.032   0.000   0.035
  0.000   0.000   0.000   0.032   0.000
 -0.508   0.103   0.035   0.000   0.070


----------------------------------------- Iteration    1(  18)  ---------------------------------------


    POTLOK:  cpu time    0.0399: real time    0.0400
    SETDIJ:  cpu time    0.0008: real time    0.0008
    EDDIAG:  cpu time    0.0036: real time    0.0035
  RMM-DIIS:  cpu time    0.0201: real time    0.0186
    ORTHCH:  cpu time    0.0007: real time    0.0006
[...]
  0.438026  -0.328195  -0.009438
  0.004431   0.122635   0.021750

DOF:   4 ATOM:   2 AXIS:   1 DISPLACEMENT:   1
 -0.445342  -0.289060   0.000000
 -0.082137   0.539631   0.000000
  0.431072  -0.366549   0.000000
  0.096407   0.115978   0.000000

DOF:   4 ATOM:   2 AXIS:   1 DISPLACEMENT:   2
 -0.431072  -0.366547   0.000000
  0.082134   0.539628   0.000000
  0.445340  -0.289061   0.000000
 -0.096402   0.115980   0.000000

DOF:   5 ATOM:   2 AXIS:   2 DISPLACEMENT:   1
 -0.447639  -0.318385   0.000000
  0.000000  -0.149778   0.000000
  0.447639  -0.318385   0.000000
  0.000000   0.786547   0.000000

DOF:   5 ATOM:   2 AXIS:   2 DISPLACEMENT:   2
 -0.428730  -0.337837   0.000000
  0.000000   1.159119   0.000000
  0.428730  -0.337837   0.000000
  0.000000  -0.483445   0.000000

DOF:   6 ATOM:   2 AXIS:   3 DISPLACEMENT:   1
 -0.438160  -0.327927   0.010464
  0.000000   0.540916   0.002808
  0.438160  -0.327927   0.010464
  0.000000   0.114937  -0.023736

DOF:   6 ATOM:   2 AXIS:   3 DISPLACEMENT:   2
 -0.438157  -0.327923  -0.010475
  0.000000   0.540908  -0.002825
  0.438157  -0.327923  -0.010475
  0.000000   0.114938   0.023774

DOF:   7 ATOM:   3 AXIS:   1 DISPLACEMENT:   1
 -0.417158  -0.352486   0.000000
 -0.007618   0.545879   0.000000
 -0.089287  -0.065030   0.000000
  0.514063  -0.128363   0.000000

DOF:   7 ATOM:   3 AXIS:   1 DISPLACEMENT:   2
 -0.458531  -0.304108   0.000000
  0.006826   0.526993   0.000000
  0.930836  -0.563416   0.000000
 -0.479132   0.340531   0.000000

DOF:   8 ATOM:   3 AXIS:   2 DISPLACEMENT:   1
 -0.414324  -0.344485   0.000000
 -0.038262   0.545689   0.000000
  0.680753  -0.555836   0.000000
 -0.228168   0.354631   0.000000

DOF:   8 ATOM:   3 AXIS:   2 DISPLACEMENT:   2
 -0.462566  -0.311809   0.000000
  0.039294   0.525808   0.000000
  0.183350  -0.099787   0.000000
  0.239922  -0.114212   0.000000

DOF:   9 ATOM:   3 AXIS:   3 DISPLACEMENT:   1
 -0.438014  -0.328189   0.009429
  0.000144   0.536019   0.010454
  0.442306  -0.330471   0.001841
 -0.004436   0.122641  -0.021724

DOF:   9 ATOM:   3 AXIS:   3 DISPLACEMENT:   2
 -0.438026  -0.328195  -0.009437
  0.000142   0.536035  -0.010462
  0.442314  -0.330474  -0.001850
 -0.004430   0.122635   0.021750

DOF:  10 ATOM:   4 AXIS:   1 DISPLACEMENT:   1
  0.076263  -0.078809   0.000000
  0.096372   0.540584   0.000000
  0.916979  -0.547823   0.000000
 -1.089614   0.086048   0.000000

DOF:  10 ATOM:   4 AXIS:   1 DISPLACEMENT:   2
 -0.916924  -0.547804   0.000000
 -0.096355   0.540545   0.000000
 -0.076273  -0.078792   0.000000
  1.089552   0.086051   0.000000

DOF:  11 ATOM:   4 AXIS:   2 DISPLACEMENT:   1
 -0.198086  -0.093968   0.000000
 -0.000000   1.139341   0.000000
  0.198086  -0.093968   0.000000
 -0.000000  -0.951405   0.000000

DOF:  11 ATOM:   4 AXIS:   2 DISPLACEMENT:   2
 -0.665992  -0.563556   0.000000
  0.000000  -0.131801   0.000000
  0.665992  -0.563556   0.000000
  0.000000   1.258912   0.000000

DOF:  12 ATOM:   4 AXIS:   3 DISPLACEMENT:   1
 -0.441499  -0.330045  -0.021623
  0.000000   0.540029  -0.023636
  0.441499  -0.330045  -0.021623
  0.000000   0.120060   0.066881

DOF:  12 ATOM:   4 AXIS:   3 DISPLACEMENT:   2
 -0.441515  -0.330055   0.021626
  0.000000   0.540044   0.023640
  0.441515  -0.330055   0.021626
  0.000000   0.120066  -0.066893

  

 SECOND DERIVATIVES (NOT SYMMETRIZED)
 ------------------------------------
               1X          1Y          1Z          2X          2Y          2Z          3X          3Y          3Z          4X          4Y          4Z 
  1X   -34.002632  -16.612006    0.000000   -0.481524   -0.630812    0.000000    1.377946    1.613253    0.000000   33.106210   15.629564    0.000000
  1Y   -16.579098  -15.201053    0.000000    2.585147    0.661261    0.000000   -1.609200   -1.088601    0.000000   15.603151   15.628394    0.000000
  1Z     0.000287    0.000123    0.123045   -0.000069   -0.000533    0.697234   -0.000394    0.000190    0.628867    0.000176    0.000220   -1.449146
  2X    -0.475639    2.582902    0.000000   -5.475703    0.000092    0.000000   -0.475615   -2.582933    0.000000    6.426958   -0.000061    0.000000
  2Y    -0.630295    0.648425    0.000000    0.000000  -43.629910    0.000000    0.630295    0.648425    0.000000    0.000000   42.333061    0.000000
  2Z    -0.000122   -0.000128    0.697957    0.000000    0.000281    0.187742    0.000122   -0.000128    0.697957    0.000000   -0.000025   -1.583656
  3X     1.379100   -1.612606    0.000000   -0.481495    0.629543    0.000000  -34.004076   16.612872    0.000000   33.106471  -15.629809    0.000000
  3Y     1.608065   -1.089191    0.000000   -2.585189    0.662716    0.000000   16.580111  -15.201618    0.000000  -15.602986   15.628093    0.000000
  3Z     0.000400    0.000188    0.628862    0.000069   -0.000530    0.697227   -0.000277    0.000122    0.123038   -0.000192    0.000220   -1.449128
  4X    33.106242   15.633167    0.000000    6.424232    0.001299    0.000000   33.108392  -15.634369    0.000000  -72.638866   -0.000098    0.000000
  4Y    15.596856   15.652925    0.000000   -0.000000   42.371388    0.000000  -15.596856   15.652925    0.000000   -0.000000  -73.677238    0.000000
  4Z     0.000542    0.000350   -1.441634    0.000000   -0.000489   -1.575845   -0.000542    0.000350   -1.441634    0.000000   -0.000211    4.459112


 Eigenvectors and eigenvalues of the dynamical matrix
 ----------------------------------------------------


   1 f  =  108.762017 THz   683.371905 2PiTHz 3627.910256 cm-1   449.803706 meV
             X         Y         Z           dx          dy          dz
      3.877200  4.015200  4.000000    -0.351753   -0.188283   -0.000001  
      3.000000  2.482900  4.000000    -0.000006   -0.766624    0.000001  
      2.122800  4.015200  4.000000     0.352227   -0.188565   -0.000001  
      3.000000  3.500000  4.000000    -0.000124    0.305756    0.000000  

   2 f  =  108.545068 THz   682.008775 2PiTHz 3620.673620 cm-1   448.906478 meV
             X         Y         Z           dx          dy          dz
      3.877200  4.015200  4.000000     0.577374    0.346813    0.000001  
      3.000000  2.482900  4.000000    -0.016790    0.000464    0.000000  
      2.122800  4.015200  4.000000     0.577337   -0.346802   -0.000001  
      3.000000  3.500000  4.000000    -0.304117   -0.000127   -0.000000  

   3 f  =  102.881683 THz   646.424679 2PiTHz 3431.763448 cm-1   425.484593 meV
             X         Y         Z           dx          dy          dz
      3.877200  4.015200  4.000000     0.492852    0.286943   -0.000009  
      3.000000  2.482900  4.000000    -0.000003   -0.591512    0.000004  
      2.122800  4.015200  4.000000    -0.492555    0.286776   -0.000008  
      3.000000  3.500000  4.000000    -0.000079    0.004869   -0.000003  

   4 f  =   46.520021 THz   292.293910 2PiTHz 1551.740811 cm-1   192.391410 meV
             X         Y         Z           dx          dy          dz
      3.877200  4.015200  4.000000    -0.365167    0.568608    0.000003  
      3.000000  2.482900  4.000000     0.000009   -0.059202    0.000003  
      2.122800  4.015200  4.000000     0.365166    0.568614    0.000003  
      3.000000  3.500000  4.000000    -0.000002   -0.288385   -0.000000  

   5 f  =   46.083687 THz   289.552343 2PiTHz 1537.186276 cm-1   190.586877 meV
             X         Y         Z           dx          dy          dz
      3.877200  4.015200  4.000000     0.151882   -0.360996    0.000004  
      3.000000  2.482900  4.000000     0.780568    0.000005    0.000000  
      2.122800  4.015200  4.000000     0.151879    0.360984   -0.000004  
      3.000000  3.500000  4.000000    -0.289742    0.000003   -0.000000  

   6 f  =   11.660828 THz    73.267142 2PiTHz  388.963336 cm-1    48.225325 meV
             X         Y         Z           dx          dy          dz
      3.877200  4.015200  4.000000    -0.000002    0.000014    0.423312  
      3.000000  2.482900  4.000000     0.000013   -0.000008   -0.800907  
      2.122800  4.015200  4.000000    -0.000011   -0.000008    0.423314  
      3.000000  3.500000  4.000000     0.000000    0.000001   -0.012687  

   7 f  =   11.118602 THz    69.860234 2PiTHz  370.876616 cm-1    45.982856 meV
             X         Y         Z           dx          dy          dz
      3.877200  4.015200  4.000000     0.003808   -0.006558   -0.707045  
      3.000000  2.482900  4.000000    -0.007572    0.000000    0.000002  
      2.122800  4.015200  4.000000     0.003808    0.006558    0.707046  
      3.000000  3.500000  4.000000    -0.000085   -0.000000   -0.000000  

   8 f  =   11.095044 THz    69.712218 2PiTHz  370.090822 cm-1    45.885430 meV
             X         Y         Z           dx          dy          dz
      3.877200  4.015200  4.000000    -0.289902    0.499360   -0.009292  
      3.000000  2.482900  4.000000     0.577041   -0.000003    0.000019  
      2.122800  4.015200  4.000000    -0.289907   -0.499361    0.009274  
      3.000000  3.500000  4.000000     0.006313    0.000002    0.000001  

   9 f  =    0.019737 THz     0.124010 2PiTHz    0.658347 cm-1     0.081625 meV
             X         Y         Z           dx          dy          dz
      3.877200  4.015200  4.000000     0.000059   -0.002067   -0.242205  
      3.000000  2.482900  4.000000     0.000062   -0.002063   -0.241649  
      2.122800  4.015200  4.000000     0.000064   -0.002067   -0.242205  
      3.000000  3.500000  4.000000     0.000231   -0.007726   -0.907858  

  10 f/i=    0.022552 THz     0.141700 2PiTHz    0.752260 cm-1     0.093268 meV
             X         Y         Z           dx          dy          dz
      3.877200  4.015200  4.000000    -0.000213    0.242665   -0.002062  
      3.000000  2.482900  4.000000    -0.000118    0.242678   -0.002057  
      2.122800  4.015200  4.000000    -0.000027    0.242662   -0.002062  
      3.000000  3.500000  4.000000    -0.000445    0.907339   -0.007730  

  11 f/i=    0.056161 THz     0.352871 2PiTHz    1.873335 cm-1     0.232264 meV
             X         Y         Z           dx          dy          dz
      3.877200  4.015200  4.000000     0.243995   -0.002389    0.000061  
      3.000000  2.482900  4.000000     0.239579    0.000120    0.000060  
      2.122800  4.015200  4.000000     0.243994    0.002629    0.000060  
      3.000000  3.500000  4.000000     0.907481    0.000446    0.000227  

  12 f/i=   21.058568 THz   132.314882 2PiTHz  702.438182 cm-1    87.091266 meV
             X         Y         Z           dx          dy          dz
      3.877200  4.015200  4.000000    -0.000004    0.000002   -0.511996  
      3.000000  2.482900  4.000000     0.000000    0.000003   -0.547859  
      2.122800  4.015200  4.000000     0.000004    0.000001   -0.511993  
      3.000000  3.500000  4.000000     0.000000   -0.000002    0.419014  

 Eigenvectors after division by SQRT(mass)

 Eigenvectors and eigenvalues of the dynamical matrix
 ----------------------------------------------------


   1 f  =  108.762017 THz   683.371905 2PiTHz 3627.910256 cm-1   449.803706 meV
             X         Y         Z           dx          dy          dz
      3.877200  4.015200  4.000000    -0.351753   -0.188283   -0.000001  
      3.000000  2.482900  4.000000    -0.000006   -0.766624    0.000001  
      2.122800  4.015200  4.000000     0.352227   -0.188565   -0.000001  
      3.000000  3.500000  4.000000    -0.000033    0.081714    0.000000  

   2 f  =  108.545068 THz   682.008775 2PiTHz 3620.673620 cm-1   448.906478 meV
             X         Y         Z           dx          dy          dz
      3.877200  4.015200  4.000000     0.577374    0.346813    0.000001  
      3.000000  2.482900  4.000000    -0.016790    0.000464    0.000000  
      2.122800  4.015200  4.000000     0.577337   -0.346802   -0.000001  
      3.000000  3.500000  4.000000    -0.081276   -0.000034   -0.000000  

   3 f  =  102.881683 THz   646.424679 2PiTHz 3431.763448 cm-1   425.484593 meV
             X         Y         Z           dx          dy          dz
      3.877200  4.015200  4.000000     0.492852    0.286943   -0.000009  
      3.000000  2.482900  4.000000    -0.000003   -0.591512    0.000004  
      2.122800  4.015200  4.000000    -0.492555    0.286776   -0.000008  
      3.000000  3.500000  4.000000    -0.000021    0.001301   -0.000001  

   4 f  =   46.520021 THz   292.293910 2PiTHz 1551.740811 cm-1   192.391410 meV
             X         Y         Z           dx          dy          dz
      3.877200  4.015200  4.000000    -0.365167    0.568608    0.000003  
      3.000000  2.482900  4.000000     0.000009   -0.059202    0.000003  
      2.122800  4.015200  4.000000     0.365166    0.568614    0.000003  
      3.000000  3.500000  4.000000    -0.000001   -0.077072   -0.000000  

   5 f  =   46.083687 THz   289.552343 2PiTHz 1537.186276 cm-1   190.586877 meV
             X         Y         Z           dx          dy          dz
      3.877200  4.015200  4.000000     0.151882   -0.360996    0.000004  
      3.000000  2.482900  4.000000     0.780568    0.000005    0.000000  
      2.122800  4.015200  4.000000     0.151879    0.360984   -0.000004  
      3.000000  3.500000  4.000000    -0.077434    0.000001   -0.000000  

   6 f  =   11.660828 THz    73.267142 2PiTHz  388.963336 cm-1    48.225325 meV
             X         Y         Z           dx          dy          dz
      3.877200  4.015200  4.000000    -0.000002    0.000014    0.423312  
      3.000000  2.482900  4.000000     0.000013   -0.000008   -0.800907  
      2.122800  4.015200  4.000000    -0.000011   -0.000008    0.423314  
      3.000000  3.500000  4.000000     0.000000    0.000000   -0.003391  

   7 f  =   11.118602 THz    69.860234 2PiTHz  370.876616 cm-1    45.982856 meV
             X         Y         Z           dx          dy          dz
      3.877200  4.015200  4.000000     0.003808   -0.006558   -0.707045  
      3.000000  2.482900  4.000000    -0.007572    0.000000    0.000002  
      2.122800  4.015200  4.000000     0.003808    0.006558    0.707046  
      3.000000  3.500000  4.000000    -0.000023   -0.000000   -0.000000  

   8 f  =   11.095044 THz    69.712218 2PiTHz  370.090822 cm-1    45.885430 meV
             X         Y         Z           dx          dy          dz
      3.877200  4.015200  4.000000    -0.289902    0.499360   -0.009292  
      3.000000  2.482900  4.000000     0.577041   -0.000003    0.000019  
      2.122800  4.015200  4.000000    -0.289907   -0.499361    0.009274  
      3.000000  3.500000  4.000000     0.001687    0.000000    0.000000  

   9 f  =    0.019737 THz     0.124010 2PiTHz    0.658347 cm-1     0.081625 meV
             X         Y         Z           dx          dy          dz
      3.877200  4.015200  4.000000     0.000059   -0.002067   -0.242205  
      3.000000  2.482900  4.000000     0.000062   -0.002063   -0.241649  
      2.122800  4.015200  4.000000     0.000064   -0.002067   -0.242205  
      3.000000  3.500000  4.000000     0.000062   -0.002065   -0.242627  

  10 f/i=    0.022552 THz     0.141700 2PiTHz    0.752260 cm-1     0.093268 meV
             X         Y         Z           dx          dy          dz
      3.877200  4.015200  4.000000    -0.000213    0.242665   -0.002062  
      3.000000  2.482900  4.000000    -0.000118    0.242678   -0.002057  
      2.122800  4.015200  4.000000    -0.000027    0.242662   -0.002062  
      3.000000  3.500000  4.000000    -0.000119    0.242488   -0.002066  

  11 f/i=    0.056161 THz     0.352871 2PiTHz    1.873335 cm-1     0.232264 meV
             X         Y         Z           dx          dy          dz
      3.877200  4.015200  4.000000     0.243995   -0.002389    0.000061  
      3.000000  2.482900  4.000000     0.239579    0.000120    0.000060  
      2.122800  4.015200  4.000000     0.243994    0.002629    0.000060  
      3.000000  3.500000  4.000000     0.242526    0.000119    0.000061  

  12 f/i=   21.058568 THz   132.314882 2PiTHz  702.438182 cm-1    87.091266 meV
             X         Y         Z           dx          dy          dz
      3.877200  4.015200  4.000000    -0.000004    0.000002   -0.511996  
      3.000000  2.482900  4.000000     0.000000    0.000003   -0.547859  
      2.122800  4.015200  4.000000     0.000004    0.000001   -0.511993  
      3.000000  3.500000  4.000000     0.000000   -0.000000    0.111982  

 Finite differences POTIM=   1.4999999999999999E-002
  LATTYP: Found a simple orthorhombic cell.
 ALAT       =     6.0000000000
 B/A-ratio  =     1.1666666667
 C/A-ratio  =     1.3333333333
  
  Lattice vectors:
  
 A1 = (   6.0000000000,   0.0000000000,   0.0000000000)
 A2 = (   0.0000000000,   7.0000000000,   0.0000000000)
 A3 = (   0.0000000000,   0.0000000000,   8.0000000000)


Analysis of symmetry for initial positions (statically):
=====================================================================
 Subroutine PRICEL returns:
 Original cell was already a primitive cell.
 

 Routine SETGRP: Setting up the symmetry group for a 
 simple orthorhombic supercell.


 Subroutine GETGRP returns: Found  4 space group operations
 (whereof  4 operations were pure point group operations)
 out of a pool of  8 trial point group operations.


The static configuration has the point symmetry C_2v.


Analysis of symmetry for dynamics (positions and initial velocities):
=====================================================================
 Subroutine PRICEL returns:
 Original cell was already a primitive cell.
 

 Routine SETGRP: Setting up the symmetry group for a 
 simple orthorhombic supercell.


 Subroutine GETGRP returns: Found  4 space group operations
 (whereof  4 operations were pure point group operations)
 out of a pool of  8 trial point group operations.


The dynamic configuration has the point symmetry C_2v.

 KPOINTS: k-points                                

Automatic generation of k-mesh.
Space group operators:
 irot       det(A)        alpha          n_x          n_y          n_z        tau_x        tau_y        tau_z
    1     1.000000     0.000000     1.000000     0.000000     0.000000     0.000000     0.000000     0.000000
    2    -1.000000   180.000000     0.000000     0.000000     1.000000     0.000000     0.000000     0.000000
    3     1.000000   180.000000     0.000000     1.000000     0.000000     0.000000     0.000000     0.000000
    4    -1.000000   180.000000     1.000000     0.000000     0.000000     0.000000     0.000000     0.000000
 
 Subroutine IBZKPT returns following result:
 ===========================================
 
 Found      1 irreducible k-points:
 
 Following reciprocal coordinates:
            Coordinates               Weight
  0.000000  0.000000  0.000000      1.000000
 
 Following cartesian coordinates:
            Coordinates               Weight
  0.000000  0.000000  0.000000      1.000000
 
 writing wavefunctions
     LOOP+:  cpu time    1.2534: real time    1.2312
    4ORBIT:  cpu time    0.0000: real time    0.0008

 total amount of memory used by VASP on root node    41197. kBytes
========================================================================

   base      :      30000. kBytes
   nonl-proj :       1166. kBytes
   fftplans  :       3154. kBytes
   grid      :       6670. kBytes
   one-center:         12. kBytes
   wavefun   :        195. kBytes

  
  
 General timing and accounting informations for this job:
 ========================================================
  
                  Total CPU time used (sec):       31.990
                            User time (sec):       29.800
                          System time (sec):        2.190
                         Elapsed time (sec):       31.489
  
                   Maximum memory used (kb):    49471488.
                   Average memory used (kb):           0.
  
                          Minor page faults:        15775
                          Major page faults:          509
                 Voluntary context switches:          216
