 vasp.5.4.4.18Apr17-6-g9f103f2a35 (build Nov 03 2018 12:05:30) complex          
  
 executed on             LinuxIFC date 2020.11.16  06:09:36
 running on   32 total cores
 distrk:  each k-point on   32 cores,    1 groups
 distr:  one band on NCORES_PER_BAND=   8 cores,    4 groups


--------------------------------------------------------------------------------------------------------


 INCAR:
 POTCAR:    PAW_PBE Se 06Sep2000                  
 POTCAR:    PAW_PBE V 08Apr2002                   
 POTCAR:    PAW_PBE Se 06Sep2000                  
   VRHFIN =Se: s2p4                                                             
   LEXCH  = PE                                                                  
   EATOM  =   257.1286 eV,   18.8984 Ry                                         
                                                                                
   TITEL  = PAW_PBE Se 06Sep2000                                                
   LULTRA =        F    use ultrasoft PP ?                                      
   IUNSCR =        1    unscreen: 0-lin 1-nonlin 2-no                           
   RPACOR =    1.900    partial core radius                                     
   POMASS =   78.960; ZVAL   =    6.000    mass and valenz                      
   RCORE  =    2.100    outmost cutoff radius                                   
   RWIGS  =    2.200; RWIGS  =    1.164    wigner-seitz radius (au A)           
   ENMAX  =  211.555; ENMIN  =  158.666 eV                                      
   ICORE  =        3    local potential                                         
   LCOR   =        T    correct aug charges                                     
   LPAW   =        T    paw PP                                                  
   EAUG   =  446.842                                                            
   DEXC   =    0.000                                                            
   RMAX   =    2.147    core radius for proj-oper                               
   RAUG   =    1.300    factor for augmentation sphere                          
   RDEP   =    2.177    radius for radial grids                                 
   RDEPT  =    1.928    core radius for aug-charge                              
                                                                                
   Atomic configuration                                                         
   10 entries                                                                   
     n  l   j            E        occ.                                          
     1  0  0.50    -12503.4787   2.0000                                         
     2  0  0.50     -1606.9547   2.0000                                         
     2  1  1.50     -1413.3140   6.0000                                         
     3  0  0.50      -213.4885   2.0000                                         
     3  1  1.50      -152.9538   6.0000                                         
     3  2  2.50       -53.1221  10.0000                                         
     4  0  0.50       -17.2865   2.0000                                         
     4  1  0.50        -6.5110   4.0000                                         
     4  2  2.50        -6.8029   0.0000                                         
     4  3  2.50        -6.8029   0.0000                                         
   Description                                                                  
     l       E           TYP  RCUT    TYP  RCUT                                 
     0    -17.2865377     23  2.100                                             
     0    -15.3094411     23  2.100                                             
     1     -6.5110275     23  2.100                                             
     1     -0.0695192     23  2.100                                             
     2     -6.8029130     23  2.100                                             
     3     -1.3605826      7  2.100                                             
  local pseudopotential read in
  partial core-charges read in
  partial kinetic energy density read in
  atomic valenz-charges read in
  non local Contribution for L=           0  read in
    real space projection operators read in
  non local Contribution for L=           0  read in
    real space projection operators read in
  non local Contribution for L=           1  read in
    real space projection operators read in
  non local Contribution for L=           1  read in
    real space projection operators read in
  non local Contribution for L=           2  read in
    real space projection operators read in
    PAW grid and wavefunctions read in
 
   number of l-projection  operators is LMAX  =           5
   number of lm-projection operators is LMMAX =          13
 
 POTCAR:    PAW_PBE V 08Apr2002                   
   VRHFIN =V: p6 d4 s1                                                          
   LEXCH  = PE                                                                  
   EATOM  =   170.8679 eV,   12.5584 Ry                                         
                                                                                
   TITEL  = PAW_PBE V 08Apr2002                                                 
   LULTRA =        F    use ultrasoft PP ?                                      
   IUNSCR =        1    unscreen: 0-lin 1-nonlin 2-no                           
   RPACOR =    2.000    partial core radius                                     
   POMASS =   50.941; ZVAL   =    5.000    mass and valenz                      
   RCORE  =    2.700    outmost cutoff radius                                   
   RWIGS  =    2.500; RWIGS  =    1.323    wigner-seitz radius (au A)           
   ENMAX  =  192.543; ENMIN  =  144.408 eV                                      
   RCLOC  =    1.779    cutoff for local pot                                    
   LCOR   =        T    correct aug charges                                     
   LPAW   =        T    paw PP                                                  
   EAUG   =  358.662                                                            
   DEXC   =    0.000                                                            
   RMAX   =    2.768    core radius for proj-oper                               
   RAUG   =    1.300    factor for augmentation sphere                          
   RDEP   =    2.762    radius for radial grids                                 
   RDEPT  =    2.240    core radius for aug-charge                              
                                                                                
   Atomic configuration                                                         
    9 entries                                                                   
     n  l   j            E        occ.                                          
     1  0  0.50     -5360.7193   2.0000                                         
     2  0  0.50      -598.4546   2.0000                                         
     2  1  1.50      -499.0155   6.0000                                         
     3  0  0.50       -66.5711   2.0000                                         
     3  1  1.50       -40.5282   6.0000                                         
     3  2  2.50        -2.4291   4.0000                                         
     4  0  0.50        -3.8743   1.0000                                         
     4  1  0.50        -2.7212   0.0000                                         
     4  3  2.50        -1.3606   0.0000                                         
   Description                                                                  
     l       E           TYP  RCUT    TYP  RCUT                                 
     2     -2.4290901     23  2.700                                             
     2     -3.7896727     23  2.700                                             
     0     -3.8742752     23  2.700                                             
     0     27.2116520     23  2.700                                             
     1     -2.7211652     23  2.700                                             
     1     27.2116520     23  2.700                                             
  local pseudopotential read in
  partial core-charges read in
  partial kinetic energy density read in
  atomic valenz-charges read in
  non local Contribution for L=           2  read in
    real space projection operators read in
  non local Contribution for L=           2  read in
    real space projection operators read in
  non local Contribution for L=           0  read in
    real space projection operators read in
  non local Contribution for L=           0  read in
    real space projection operators read in
  non local Contribution for L=           1  read in
    real space projection operators read in
  non local Contribution for L=           1  read in
    real space projection operators read in
    PAW grid and wavefunctions read in
 
   number of l-projection  operators is LMAX  =           6
   number of lm-projection operators is LMMAX =          18
 

 ----------------------------------------------------------------------------- 
|                                                                             |
|  ADVICE TO THIS USER RUNNING 'VASP/VAMP'   (HEAR YOUR MASTER'S VOICE ...):  |
|                                                                             |
|      You have a (more or less) 'small supercell' and for smaller cells      |
|      it is recommended  to use the reciprocal-space projection scheme!      |
|      The real space optimization is not  efficient for small cells and it   |
|      is also less accurate ...                                              |
|      Therefore set LREAL=.FALSE. in the  INCAR file                         |
|                                                                             |
 ----------------------------------------------------------------------------- 

 Optimization of the real space projectors (new method)

 maximal supplied QI-value         = 17.95
 optimisation between [QCUT,QGAM] = [ 10.23, 20.47] = [ 29.32,117.29] Ry 
 Optimized for a Real-space Cutoff    1.30 Angstroem

   l    n(q)    QCUT    max X(q) W(low)/X(q) W(high)/X(q)  e(spline) 
   0      8    10.233   133.320    0.21E-03    0.21E-03    0.47E-07
   0      8    10.233   111.601    0.22E-03    0.22E-03    0.49E-07
   1      7    10.233    47.222    0.18E-03    0.34E-03    0.82E-07
   1      7    10.233    33.775    0.18E-03    0.34E-03    0.79E-07
   2      7    10.233     3.720    0.23E-03    0.23E-03    0.57E-07
 Optimization of the real space projectors (new method)

 maximal supplied QI-value         = 13.98
 optimisation between [QCUT,QGAM] = [ 10.21, 20.42] = [ 29.18,116.73] Ry 
 Optimized for a Real-space Cutoff    1.60 Angstroem

   l    n(q)    QCUT    max X(q) W(low)/X(q) W(high)/X(q)  e(spline) 
   2      9    10.208    96.114    0.38E-03    0.52E-03    0.25E-06
   2      9    10.208    88.986    0.38E-03    0.52E-03    0.26E-06
   0     10    10.208    20.919    0.14E-03    0.29E-04    0.23E-06
   0     10    10.208     9.593    0.11E-03    0.21E-04    0.17E-06
   1      9    10.208    11.615    0.18E-03    0.30E-03    0.12E-06
   1      9    10.208     7.031    0.12E-03    0.21E-03    0.96E-07
  PAW_PBE Se 06Sep2000                  :
 energy of atom  1       EATOM= -257.1286
 kinetic energy error for atom=    0.0020 (will be added to EATOM!!)
  PAW_PBE V 08Apr2002                   :
 energy of atom  2       EATOM= -170.8679
 kinetic energy error for atom=    0.0010 (will be added to EATOM!!)
 
 
 POSCAR: Se  V                                   
  positions in direct lattice
  No initial velocities read in
 exchange correlation table for  LEXCH =        8
   RHO(1)=    0.500       N(1)  =     2000
   RHO(2)=  100.500       N(2)  =     4000
 


--------------------------------------------------------------------------------------------------------


 ion  position               nearest neighbor table
   1  0.667  0.333  0.112-   3 2.47   3 2.47   3 2.47
   2  0.333  0.667  0.248-   3 2.47   3 2.47   3 2.47
   3  0.000  0.000  0.180-   2 2.47   1 2.47   1 2.47   2 2.47   1 2.47   2 2.47
 

IMPORTANT INFORMATION: All symmetrisations will be switched off!
NOSYMM: (Re-)initialisation of all symmetry stuff for point group C_1.

 
 
 KPOINTS: dummy                                   

Automatic generation of k-mesh.
Space group operators:
 irot       det(A)        alpha          n_x          n_y          n_z        tau_x        tau_y        tau_z
    1     1.000000     0.000000     1.000000     0.000000     0.000000     0.000000     0.000000     0.000000
 
 Subroutine IBZKPT returns following result:
 ===========================================
 
 Found     41 irreducible k-points:
 
 Following reciprocal coordinates:
            Coordinates               Weight
  0.000000  0.000000  0.000000      1.000000
  0.111111  0.000000  0.000000      2.000000
  0.222222  0.000000  0.000000      2.000000
  0.333333  0.000000  0.000000      2.000000
  0.444444  0.000000  0.000000      2.000000
  0.000000  0.111111  0.000000      2.000000
  0.111111  0.111111  0.000000      2.000000
  0.222222  0.111111  0.000000      2.000000
  0.333333  0.111111  0.000000      2.000000
  0.444444  0.111111  0.000000      2.000000
 -0.444444  0.111111  0.000000      2.000000
 -0.333333  0.111111  0.000000      2.000000
 -0.222222  0.111111  0.000000      2.000000
 -0.111111  0.111111  0.000000      2.000000
  0.000000  0.222222  0.000000      2.000000
  0.111111  0.222222  0.000000      2.000000
  0.222222  0.222222  0.000000      2.000000
  0.333333  0.222222  0.000000      2.000000
  0.444444  0.222222  0.000000      2.000000
 -0.444444  0.222222  0.000000      2.000000
 -0.333333  0.222222  0.000000      2.000000
 -0.222222  0.222222  0.000000      2.000000
 -0.111111  0.222222  0.000000      2.000000
  0.000000  0.333333  0.000000      2.000000
  0.111111  0.333333  0.000000      2.000000
  0.222222  0.333333  0.000000      2.000000
  0.333333  0.333333  0.000000      2.000000
  0.444444  0.333333  0.000000      2.000000
 -0.444444  0.333333  0.000000      2.000000
 -0.333333  0.333333  0.000000      2.000000
 -0.222222  0.333333  0.000000      2.000000
 -0.111111  0.333333  0.000000      2.000000
  0.000000  0.444444  0.000000      2.000000
  0.111111  0.444444  0.000000      2.000000
  0.222222  0.444444  0.000000      2.000000
  0.333333  0.444444  0.000000      2.000000
  0.444444  0.444444  0.000000      2.000000
 -0.444444  0.444444  0.000000      2.000000
 -0.333333  0.444444  0.000000      2.000000
 -0.222222  0.444444  0.000000      2.000000
 -0.111111  0.444444  0.000000      2.000000
 
 Following cartesian coordinates:
            Coordinates               Weight
  0.000000  0.000000  0.000000      1.000000
  0.038517  0.000000  0.000000      2.000000
  0.077034  0.000000  0.000000      2.000000
  0.115551  0.000000  0.000000      2.000000
  0.154068  0.000000  0.000000      2.000000
  0.019258  0.033357  0.000000      2.000000
  0.057775  0.033357  0.000000      2.000000
  0.096292  0.033357  0.000000      2.000000
  0.134809  0.033357  0.000000      2.000000
  0.173326  0.033357  0.000000      2.000000
 -0.134809  0.033357  0.000000      2.000000
 -0.096292  0.033357  0.000000      2.000000
 -0.057775  0.033357  0.000000      2.000000
 -0.019258  0.033357  0.000000      2.000000
  0.038517  0.066713  0.000000      2.000000
  0.077034  0.066713  0.000000      2.000000
  0.115551  0.066713  0.000000      2.000000
  0.154068  0.066713  0.000000      2.000000
  0.192585  0.066713  0.000000      2.000000
 -0.115551  0.066713  0.000000      2.000000
 -0.077034  0.066713  0.000000      2.000000
 -0.038517  0.066713  0.000000      2.000000
  0.000000  0.066713  0.000000      2.000000
  0.057775  0.100070  0.000000      2.000000
  0.096292  0.100070  0.000000      2.000000
  0.134809  0.100070  0.000000      2.000000
  0.173326  0.100070  0.000000      2.000000
  0.211843  0.100070  0.000000      2.000000
 -0.096292  0.100070  0.000000      2.000000
 -0.057775  0.100070  0.000000      2.000000
 -0.019258  0.100070  0.000000      2.000000
  0.019258  0.100070  0.000000      2.000000
  0.077034  0.133427  0.000000      2.000000
  0.115551  0.133427  0.000000      2.000000
  0.154068  0.133427  0.000000      2.000000
  0.192585  0.133427  0.000000      2.000000
  0.231102  0.133427  0.000000      2.000000
 -0.077034  0.133427  0.000000      2.000000
 -0.038517  0.133427  0.000000      2.000000
  0.000000  0.133427  0.000000      2.000000
  0.038517  0.133427  0.000000      2.000000
 


--------------------------------------------------------------------------------------------------------




 Dimension of arrays:
   k-points           NKPTS =     41   k-points in BZ     NKDIM =     41   number of bands    NBANDS=     16
   number of dos      NEDOS =  10000   number of ions     NIONS =      3
   non local maximal  LDIM  =      6   non local SUM 2l+1 LMDIM =     18
   total plane-waves  NPLWV =  30720
   max r-space proj   IRMAX =   2470   max aug-charges    IRDMAX=   8747
   dimension x,y,z NGX =    16 NGY =   16 NGZ =  120
   dimension x,y,z NGXF=    32 NGYF=   32 NGZF=  240
   support grid    NGXF=    32 NGYF=   32 NGZF=  240
   ions per type =               2   1
   NGX,Y,Z   is equivalent  to a cutoff of   8.04,  8.04,  8.67 a.u.
   NGXF,Y,Z  is equivalent  to a cutoff of  16.08, 16.08, 17.35 a.u.

 SYSTEM =  /home/chen747/Work/Work2020/VSe2/1x1/a  
 POSCAR =  Se  V                                   

 Startparameter for this run:
   NWRITE =      2    write-flag & timer
   PREC   = normal    normal or accurate (medium, high low for compatibility)
   ISTART =      0    job   : 0-new  1-cont  2-samecut
   ICHARG =      2    charge: 1-file 2-atom 10-const
   ISPIN  =      2    spin polarized calculation?
   LNONCOLLINEAR =      F non collinear calculations
   LSORBIT =      F    spin-orbit coupling
   INIWAV =      1    electr: 0-lowe 1-rand  2-diag
   LASPH  =      F    aspherical Exc in radial PAW
   METAGGA=      F    non-selfconsistent MetaGGA calc.

 Electronic Relaxation 1
   ENCUT  =  400.0 eV  29.40 Ry    5.42 a.u.   5.39  5.39 37.51*2*pi/ulx,y,z
   ENINI  =  400.0     initial cutoff
   ENAUG  =  446.8 eV  augmentation charge cutoff
   NELM   =    300;   NELMIN=  4; NELMDL= -5     # of ELM steps 
   EDIFF  = 0.1E-04   stopping-criterion for ELM
   LREAL  =      T    real-space projection
   NLSPLINE    = F    spline interpolate recip. space projectors
   LCOMPAT=      F    compatible to vasp.4.4
   GGA_COMPAT  = T    GGA compatible to vasp.4.4-vasp.4.6
   LMAXPAW     = -100 max onsite density
   LMAXMIX     =    2 max onsite mixed and CHGCAR
   VOSKOWN=      0    Vosko Wilk Nusair interpolation
   ROPT   =   -0.00050  -0.00050
 Ionic relaxation
   EDIFFG = -.1E-01   stopping-criterion for IOM
   NSW    =   1800    number of steps for IOM
   NBLOCK =      1;   KBLOCK =   1800    inner block; outer block 
   IBRION =      1    ionic relax: 0-MD 1-quasi-New 2-CG
   NFREE  =      0    steps in history (QN), initial steepest desc. (CG)
   ISIF   =      2    stress and relaxation
   IWAVPR =     11    prediction:  0-non 1-charg 2-wave 3-comb
   ISYM   =      0    0-nonsym 1-usesym 2-fastsym
   LCORR  =      T    Harris-Foulkes like correction to forces

   POTIM  = 0.5000    time-step for ionic-motion
   TEIN   =    0.0    initial temperature
   TEBEG  =    0.0;   TEEND  =   0.0 temperature during run
   SMASS  =  -3.00    Nose mass-parameter (am)
   estimated Nose-frequenzy (Omega)   =  0.10E-29 period in steps =****** mass=  -0.250E-27a.u.
   SCALEE = 1.0000    scale energy and forces
   NPACO  =    256;   APACO  = 16.0  distance and # of slots for P.C.
   PSTRESS=    0.0 pullay stress

  Mass of Ions in am
   POMASS =  78.96 50.94
  Ionic Valenz
   ZVAL   =   6.00  5.00
  Atomic Wigner-Seitz radii
   RWIGS  =  -1.00 -1.00
  virtual crystal weights 
   VCA    =   1.00  1.00
   NELECT =      17.0000    total number of electrons
   NUPDOWN=      -1.0000    fix difference up-down

 DOS related values:
   EMIN   = -30.00;   EMAX   = 45.00  energy-range for DOS
   EFERMI =   0.00
   ISMEAR =     0;   SIGMA  =   0.05  broadening in eV -4-tet -1-fermi 0-gaus

 Electronic relaxation 2 (details)
   IALGO  =     38    algorithm
   LDIAG  =      T    sub-space diagonalisation (order eigenvalues)
   LSUBROT=      F    optimize rotation matrix (better conditioning)
   TURBO    =      0    0=normal 1=particle mesh
   IRESTART =      0    0=no restart 2=restart with 2 vectors
   NREBOOT  =      0    no. of reboots
   NMIN     =      0    reboot dimension
   EREF     =   0.00    reference energy to select bands
   IMIX   =      4    mixing-type and parameters
     AMIX     =   0.40;   BMIX     =  1.00
     AMIX_MAG =   1.60;   BMIX_MAG =  1.00
     AMIN     =   0.10
     WC   =   100.;   INIMIX=   1;  MIXPRE=   1;  MAXMIX= -45

 Intra band minimization:
   WEIMIN = 0.0010     energy-eigenvalue tresh-hold
   EBREAK =  0.16E-06  absolut break condition
   DEPER  =   0.30     relativ break condition  

   TIME   =   0.40     timestep for ELM

  volume/ion in A,a.u.               =      72.65       490.25
  Fermi-wavevector in a.u.,A,eV,Ry     =   0.699483  1.321832  6.657018  0.489277
  Thomas-Fermi vector in A             =   1.783375
 
 Write flags
   LWAVE        =      F    write WAVECAR
   LDOWNSAMPLE  =      F    k-point downsampling of WAVECAR
   LCHARG       =      F    write CHGCAR
   LVTOT        =      F    write LOCPOT, total local potential
   LVHAR        =      F    write LOCPOT, Hartree potential only
   LELF         =      F    write electronic localiz. function (ELF)
   LORBIT       =     11    0 simple, 1 ext, 2 COOP (PROOUT), +10 PAW based schemes


 Dipole corrections
   LMONO  =      F    monopole corrections only (constant potential shift)
   LDIPOL =      F    correct potential (dipole corrections)
   IDIPOL =      0    1-x, 2-y, 3-z, 4-all directions 
   EPSILON=  1.0000000 bulk dielectric constant

 Exchange correlation treatment:
   GGA     =    --    GGA type
   LEXCH   =     8    internal setting for exchange type
   VOSKOWN=      0    Vosko Wilk Nusair interpolation
   LHFCALC =     F    Hartree Fock is set to
   LHFONE  =     F    Hartree Fock one center treatment
   AEXX    =    0.0000 exact exchange contribution

 Linear response parameters
   LEPSILON=     F    determine dielectric tensor
   LRPA    =     F    only Hartree local field effects (RPA)
   LNABLA  =     F    use nabla operator in PAW spheres
   LVEL    =     F    velocity operator in full k-point grid
   LINTERFAST=   F  fast interpolation
   KINTER  =     0    interpolate to denser k-point grid
   CSHIFT  =0.1000    complex shift for real part using Kramers Kronig
   OMEGAMAX=  -1.0    maximum frequency
   DEG_THRESHOLD= 0.2000000E-02 threshold for treating states as degnerate
   RTIME   =   -0.100 relaxation time in fs
  (WPLASMAI=    0.000 imaginary part of plasma frequency in eV, 0.658/RTIME)
   DFIELD  = 0.0000000 0.0000000 0.0000000 field for delta impulse in time
 
 Orbital magnetization related:
   ORBITALMAG=     F  switch on orbital magnetization
   LCHIMAG   =     F  perturbation theory with respect to B field
   DQ        =  0.001000  dq finite difference perturbation B field
   LLRAUG    =     F  two centre corrections for induced B field



--------------------------------------------------------------------------------------------------------


 quasi-Newton-method for relaxation of ions
 charge density and potential will be updated during run
 spin polarized calculation
 Variant of blocked Davidson
 Davidson routine will perform the subspace rotation
 perform sub-space diagonalisation
    after iterative eigenvector-optimisation
 modified Broyden-mixing scheme, WC =      100.0
 initial mixing is a Kerker type mixing with AMIX =  0.4000 and BMIX =      1.0000
 Hartree-type preconditioning will be used
 using additional bands            7
 real space projection scheme for non local part
 use partial core corrections
 calculate Harris-corrections to forces 
   (improved forces if not selfconsistent)
 use gradient corrections 
 use of overlap-Matrix (Vanderbilt PP)
 Gauss-broadening in eV      SIGMA  =   0.05


--------------------------------------------------------------------------------------------------------


  energy-cutoff  :      400.00
  volume of cell :      217.94
      direct lattice vectors                 reciprocal lattice vectors
     2.864537506 -1.653841500  0.000000000     0.349096494  0.000000000  0.000000000
     0.000000000  3.307683000  0.000000000     0.174548247  0.302326432  0.000000000
     0.000000000  0.000000000 23.001852000     0.000000000  0.000000000  0.043474760

  length of vectors
     3.307683000  3.307683000 23.001852000     0.349096494  0.349096494  0.043474760


 
 k-points in units of 2pi/SCALE and weight: dummy                                   
   0.00000000  0.00000000  0.00000000       0.012
   0.03851698  0.00000000  0.00000000       0.025
   0.07703396  0.00000000  0.00000000       0.025
   0.11555094  0.00000000  0.00000000       0.025
   0.15406792  0.00000000  0.00000000       0.025
   0.01925849  0.03335668  0.00000000       0.025
   0.05777547  0.03335668  0.00000000       0.025
   0.09629245  0.03335668  0.00000000       0.025
   0.13480943  0.03335668  0.00000000       0.025
   0.17332641  0.03335668  0.00000000       0.025
  -0.13480943  0.03335668  0.00000000       0.025
  -0.09629245  0.03335668  0.00000000       0.025
  -0.05777547  0.03335668  0.00000000       0.025
  -0.01925849  0.03335668  0.00000000       0.025
   0.03851698  0.06671337  0.00000000       0.025
   0.07703396  0.06671337  0.00000000       0.025
   0.11555094  0.06671337  0.00000000       0.025
   0.15406792  0.06671337  0.00000000       0.025
   0.19258490  0.06671337  0.00000000       0.025
  -0.11555094  0.06671337  0.00000000       0.025
  -0.07703396  0.06671337  0.00000000       0.025
  -0.03851698  0.06671337  0.00000000       0.025
   0.00000000  0.06671337  0.00000000       0.025
   0.05777547  0.10007005  0.00000000       0.025
   0.09629245  0.10007005  0.00000000       0.025
   0.13480943  0.10007005  0.00000000       0.025
   0.17332641  0.10007005  0.00000000       0.025
   0.21184339  0.10007005  0.00000000       0.025
  -0.09629245  0.10007005  0.00000000       0.025
  -0.05777547  0.10007005  0.00000000       0.025
  -0.01925849  0.10007005  0.00000000       0.025
   0.01925849  0.10007005  0.00000000       0.025
   0.07703396  0.13342673  0.00000000       0.025
   0.11555094  0.13342673  0.00000000       0.025
   0.15406792  0.13342673  0.00000000       0.025
   0.19258490  0.13342673  0.00000000       0.025
   0.23110188  0.13342673  0.00000000       0.025
  -0.07703396  0.13342673  0.00000000       0.025
  -0.03851698  0.13342673  0.00000000       0.025
   0.00000000  0.13342673  0.00000000       0.025
   0.03851698  0.13342673  0.00000000       0.025
 
 k-points in reciprocal lattice and weights: dummy                                   
   0.00000000  0.00000000  0.00000000       0.012
   0.11111111  0.00000000  0.00000000       0.025
   0.22222222  0.00000000  0.00000000       0.025
   0.33333333  0.00000000  0.00000000       0.025
   0.44444444  0.00000000  0.00000000       0.025
   0.00000000  0.11111111  0.00000000       0.025
   0.11111111  0.11111111  0.00000000       0.025
   0.22222222  0.11111111  0.00000000       0.025
   0.33333333  0.11111111  0.00000000       0.025
   0.44444444  0.11111111  0.00000000       0.025
  -0.44444444  0.11111111  0.00000000       0.025
  -0.33333333  0.11111111  0.00000000       0.025
  -0.22222222  0.11111111  0.00000000       0.025
  -0.11111111  0.11111111  0.00000000       0.025
   0.00000000  0.22222222  0.00000000       0.025
   0.11111111  0.22222222  0.00000000       0.025
   0.22222222  0.22222222  0.00000000       0.025
   0.33333333  0.22222222  0.00000000       0.025
   0.44444444  0.22222222  0.00000000       0.025
  -0.44444444  0.22222222  0.00000000       0.025
  -0.33333333  0.22222222  0.00000000       0.025
  -0.22222222  0.22222222  0.00000000       0.025
  -0.11111111  0.22222222  0.00000000       0.025
   0.00000000  0.33333333  0.00000000       0.025
   0.11111111  0.33333333  0.00000000       0.025
   0.22222222  0.33333333  0.00000000       0.025
   0.33333333  0.33333333  0.00000000       0.025
   0.44444444  0.33333333  0.00000000       0.025
  -0.44444444  0.33333333  0.00000000       0.025
  -0.33333333  0.33333333  0.00000000       0.025
  -0.22222222  0.33333333  0.00000000       0.025
  -0.11111111  0.33333333  0.00000000       0.025
   0.00000000  0.44444444  0.00000000       0.025
   0.11111111  0.44444444  0.00000000       0.025
   0.22222222  0.44444444  0.00000000       0.025
   0.33333333  0.44444444  0.00000000       0.025
   0.44444444  0.44444444  0.00000000       0.025
  -0.44444444  0.44444444  0.00000000       0.025
  -0.33333333  0.44444444  0.00000000       0.025
  -0.22222222  0.44444444  0.00000000       0.025
  -0.11111111  0.44444444  0.00000000       0.025
 
 position of ions in fractional coordinates (direct lattice) 
   0.66666667  0.33333333  0.11158769
   0.33333333  0.66666667  0.24818769
   0.00000000  0.00000000  0.17988769
 
 position of ions in cartesian coordinates  (Angst):
   1.90969167  0.00000000  2.56672361
   0.95484584  1.65384150  5.70877660
   0.00000000  0.00000000  4.13775011
 


--------------------------------------------------------------------------------------------------------


 k-point  1 :   0.0000 0.0000 0.0000  plane waves:    4011
 k-point  2 :   0.1111 0.0000 0.0000  plane waves:    4009
 k-point  3 :   0.2222 0.0000 0.0000  plane waves:    3981
 k-point  4 :   0.3333 0.0000 0.0000  plane waves:    3956
 k-point  5 :   0.4444 0.0000 0.0000  plane waves:    3932
 k-point  6 :   0.0000 0.1111 0.0000  plane waves:    4009
 k-point  7 :   0.1111 0.1111 0.0000  plane waves:    3983
 k-point  8 :   0.2222 0.1111 0.0000  plane waves:    3976
 k-point  9 :   0.3333 0.1111 0.0000  plane waves:    3942
 k-point 10 :   0.4444 0.1111 0.0000  plane waves:    3938
 k-point 11 :  -0.4444 0.1111 0.0000  plane waves:    3942
 k-point 12 :  -0.3333 0.1111 0.0000  plane waves:    3976
 k-point 13 :  -0.2222 0.1111 0.0000  plane waves:    3983
 k-point 14 :  -0.1111 0.1111 0.0000  plane waves:    4009
 k-point 15 :   0.0000 0.2222 0.0000  plane waves:    3981
 k-point 16 :   0.1111 0.2222 0.0000  plane waves:    3976
 k-point 17 :   0.2222 0.2222 0.0000  plane waves:    3953
 k-point 18 :   0.3333 0.2222 0.0000  plane waves:    3959
 k-point 19 :   0.4444 0.2222 0.0000  plane waves:    3959
 k-point 20 :  -0.4444 0.2222 0.0000  plane waves:    3953
 k-point 21 :  -0.3333 0.2222 0.0000  plane waves:    3976
 k-point 22 :  -0.2222 0.2222 0.0000  plane waves:    3981
 k-point 23 :  -0.1111 0.2222 0.0000  plane waves:    3983
 k-point 24 :   0.0000 0.3333 0.0000  plane waves:    3956
 k-point 25 :   0.1111 0.3333 0.0000  plane waves:    3942
 k-point 26 :   0.2222 0.3333 0.0000  plane waves:    3959
 k-point 27 :   0.3333 0.3333 0.0000  plane waves:    3936
 k-point 28 :   0.4444 0.3333 0.0000  plane waves:    3959
 k-point 29 :  -0.4444 0.3333 0.0000  plane waves:    3942
 k-point 30 :  -0.3333 0.3333 0.0000  plane waves:    3956
 k-point 31 :  -0.2222 0.3333 0.0000  plane waves:    3976
 k-point 32 :  -0.1111 0.3333 0.0000  plane waves:    3976
 k-point 33 :   0.0000 0.4444 0.0000  plane waves:    3932
 k-point 34 :   0.1111 0.4444 0.0000  plane waves:    3938
 k-point 35 :   0.2222 0.4444 0.0000  plane waves:    3959
 k-point 36 :   0.3333 0.4444 0.0000  plane waves:    3959
 k-point 37 :   0.4444 0.4444 0.0000  plane waves:    3938
 k-point 38 :  -0.4444 0.4444 0.0000  plane waves:    3932
 k-point 39 :  -0.3333 0.4444 0.0000  plane waves:    3942
 k-point 40 :  -0.2222 0.4444 0.0000  plane waves:    3953
 k-point 41 :  -0.1111 0.4444 0.0000  plane waves:    3942

 maximum and minimum number of plane-waves per node :       518      474

 maximum number of plane-waves:      4011
 maximum index in each direction: 
   IXMAX=    5   IYMAX=    5   IZMAX=   37
   IXMIN=   -5   IYMIN=   -5   IZMIN=  -37


 real space projection operators:
  total allocation   :        586.41 KBytes
  max/ min on nodes  :         74.34         71.97


 parallel 3D FFT for wavefunctions:
    minimum data exchange during FFTs selected (reduces bandwidth)
 parallel 3D FFT for charge:
    minimum data exchange during FFTs selected (reduces bandwidth)


 total amount of memory used by VASP MPI-rank0    34370. kBytes
=======================================================================

   base      :      30000. kBytes
   nonlr-proj:        213. kBytes
   fftplans  :        388. kBytes
   grid      :        926. kBytes
   one-center:         31. kBytes
   wavefun   :       2812. kBytes
 
     INWAV:  cpu time    0.0001: real time    0.0002
 Broyden mixing: mesh for mixing (old mesh)
   NGX = 11   NGY = 11   NGZ = 75
  (NGX  = 32   NGY  = 32   NGZ  =240)
  gives a total of   9075 points

 initial charge density was supplied:
 charge density of overlapping atoms calculated
 number of electron      17.0000000 magnetization       3.0000000
 keeping initial charge density in first step


--------------------------------------------------------------------------------------------------------


 Maximum index for non-local projection operator          270
 Maximum index for augmentation-charges          459 (set IRDMAX)


--------------------------------------------------------------------------------------------------------


 First call to EWALD:  gamma=   0.295
 Maximum number of real-space cells 5x 5x 1
 Maximum number of reciprocal cells 2x 2x 9

    FEWALD:  cpu time    0.0017: real time    0.0043


--------------------------------------- Iteration      1(   1)  ---------------------------------------


    POTLOK:  cpu time    0.0276: real time    0.1063
    SETDIJ:  cpu time    0.0155: real time    0.0337
     EDDAV:  cpu time    0.8621: real time    0.9041
       DOS:  cpu time    0.0053: real time    0.0174
    --------------------------------------------
      LOOP:  cpu time    0.9106: real time    1.0615

 eigenvalue-minimisations  :  2676
 total energy-change (2. order) : 0.1375928E+03  (-0.4502053E+03)
 number of electron      17.0000000 magnetization       3.0000000
 augmentation part       17.0000000 magnetization       3.0000000

 Free energy of the ion-electron system (eV)
  ---------------------------------------------------
  alpha Z        PSCENC =        13.90262175
  Ewald energy   TEWEN  =      2605.35531937
  -Hartree energ DENC   =     -3211.00773674
  -exchange      EXHF   =         0.00000000
  -V(xc)+E(xc)   XCENC  =       -46.95991586
  PAW double counting   =       626.60813804     -549.74916723
  entropy T*S    EENTRO =        -0.00514220
  eigenvalues    EBANDS =        14.32856020
  atomic energy  EATOM  =       685.12008660
  Solvation  Ediel_sol  =         0.00000000
  ---------------------------------------------------
  free energy    TOTEN  =       137.59276392 eV

  energy without entropy =      137.59790612  energy(sigma->0) =      137.59533502


--------------------------------------------------------------------------------------------------------




--------------------------------------- Iteration      1(   2)  ---------------------------------------


     EDDAV:  cpu time    0.9307: real time    0.9314
       DOS:  cpu time    0.0049: real time    0.0049
    --------------------------------------------
      LOOP:  cpu time    0.9356: real time    0.9363

 eigenvalue-minimisations  :  3020
 total energy-change (2. order) :-0.1324652E+03  (-0.1207377E+03)
 number of electron      17.0000000 magnetization       3.0000000
 augmentation part       17.0000000 magnetization       3.0000000

 Free energy of the ion-electron system (eV)
  ---------------------------------------------------
  alpha Z        PSCENC =        13.90262175
  Ewald energy   TEWEN  =      2605.35531937
  -Hartree energ DENC   =     -3211.00773674
  -exchange      EXHF   =         0.00000000
  -V(xc)+E(xc)   XCENC  =       -46.95991586
  PAW double counting   =       626.60813804     -549.74916723
  entropy T*S    EENTRO =        -0.00303801
  eigenvalues    EBANDS =      -118.13872734
  atomic energy  EATOM  =       685.12008660
  Solvation  Ediel_sol  =         0.00000000
  ---------------------------------------------------
  free energy    TOTEN  =         5.12758057 eV

  energy without entropy =        5.13061859  energy(sigma->0) =        5.12909958


--------------------------------------------------------------------------------------------------------




--------------------------------------- Iteration      1(   3)  ---------------------------------------


     EDDAV:  cpu time    1.0719: real time    1.0720
       DOS:  cpu time    0.0048: real time    0.0048
    --------------------------------------------
      LOOP:  cpu time    1.0767: real time    1.0769

 eigenvalue-minimisations  :  3704
 total energy-change (2. order) :-0.2410308E+02  (-0.2307594E+02)
 number of electron      17.0000000 magnetization       3.0000000
 augmentation part       17.0000000 magnetization       3.0000000

 Free energy of the ion-electron system (eV)
  ---------------------------------------------------
  alpha Z        PSCENC =        13.90262175
  Ewald energy   TEWEN  =      2605.35531937
  -Hartree energ DENC   =     -3211.00773674
  -exchange      EXHF   =         0.00000000
  -V(xc)+E(xc)   XCENC  =       -46.95991586
  PAW double counting   =       626.60813804     -549.74916723
  entropy T*S    EENTRO =        -0.00182956
  eigenvalues    EBANDS =      -142.24301567
  atomic energy  EATOM  =       685.12008660
  Solvation  Ediel_sol  =         0.00000000
  ---------------------------------------------------
  free energy    TOTEN  =       -18.97549931 eV

  energy without entropy =      -18.97366975  energy(sigma->0) =      -18.97458453


--------------------------------------------------------------------------------------------------------




--------------------------------------- Iteration      1(   4)  ---------------------------------------


     EDDAV:  cpu time    1.0152: real time    1.0178
       DOS:  cpu time    0.0050: real time    0.0050
    --------------------------------------------
      LOOP:  cpu time    1.0202: real time    1.0228

 eigenvalue-minimisations  :  3464
 total energy-change (2. order) :-0.1269985E+01  (-0.1252026E+01)
 number of electron      17.0000000 magnetization       3.0000000
 augmentation part       17.0000000 magnetization       3.0000000

 Free energy of the ion-electron system (eV)
  ---------------------------------------------------
  alpha Z        PSCENC =        13.90262175
  Ewald energy   TEWEN  =      2605.35531937
  -Hartree energ DENC   =     -3211.00773674
  -exchange      EXHF   =         0.00000000
  -V(xc)+E(xc)   XCENC  =       -46.95991586
  PAW double counting   =       626.60813804     -549.74916723
  entropy T*S    EENTRO =        -0.00163774
  eigenvalues    EBANDS =      -143.51319266
  atomic energy  EATOM  =       685.12008660
  Solvation  Ediel_sol  =         0.00000000
  ---------------------------------------------------
  free energy    TOTEN  =       -20.24548447 eV

  energy without entropy =      -20.24384674  energy(sigma->0) =      -20.24466560


--------------------------------------------------------------------------------------------------------




--------------------------------------- Iteration      1(   5)  ---------------------------------------


     EDDAV:  cpu time    1.0393: real time    1.0423
       DOS:  cpu time    0.0050: real time    0.0050
    CHARGE:  cpu time    0.0820: real time    0.1643
    MIXING:  cpu time    0.0029: real time    0.0200
    --------------------------------------------
      LOOP:  cpu time    1.1292: real time    1.2317

 eigenvalue-minimisations  :  3508
 total energy-change (2. order) :-0.3669237E-01  (-0.3665864E-01)
 number of electron      17.0000011 magnetization       2.7288649
 augmentation part       -1.4880114 magnetization       2.3682582

 Broyden mixing:
  rms(total) = 0.16626E+01    rms(broyden)= 0.16626E+01
  rms(prec ) = 0.17349E+01
  weight for this iteration     100.00

 Free energy of the ion-electron system (eV)
  ---------------------------------------------------
  alpha Z        PSCENC =        13.90262175
  Ewald energy   TEWEN  =      2605.35531937
  -Hartree energ DENC   =     -3211.00773674
  -exchange      EXHF   =         0.00000000
  -V(xc)+E(xc)   XCENC  =       -46.95991586
  PAW double counting   =       626.60813804     -549.74916723
  entropy T*S    EENTRO =        -0.00153642
  eigenvalues    EBANDS =      -143.54998635
  atomic energy  EATOM  =       685.12008660
  Solvation  Ediel_sol  =         0.00000000
  ---------------------------------------------------
  free energy    TOTEN  =       -20.28217684 eV

  energy without entropy =      -20.28064042  energy(sigma->0) =      -20.28140863


--------------------------------------------------------------------------------------------------------




--------------------------------------- Iteration      1(   6)  ---------------------------------------


    POTLOK:  cpu time    0.0205: real time    0.0221
    SETDIJ:  cpu time    0.0065: real time    0.0065
     EDDAV:  cpu time    1.0514: real time    1.0514
       DOS:  cpu time    0.0050: real time    0.0050
    CHARGE:  cpu time    0.0182: real time    0.0182
    MIXING:  cpu time    0.0011: real time    0.1228
    --------------------------------------------
      LOOP:  cpu time    1.1027: real time    1.2260

 eigenvalue-minimisations  :  3632
 total energy-change (2. order) :-0.6281435E+00  (-0.1696207E+01)
 number of electron      17.0000012 magnetization       2.6606561
 augmentation part        2.3526597 magnetization       1.8882709

 Broyden mixing:
  rms(total) = 0.22076E+01    rms(broyden)= 0.22076E+01
  rms(prec ) = 0.25148E+01
  weight for this iteration     100.00

 eigenvalues of (default mixing * dielectric matrix)
  average eigenvalue GAMMA=   0.4202
  0.4202

 Free energy of the ion-electron system (eV)
  ---------------------------------------------------
  alpha Z        PSCENC =        13.90262175
  Ewald energy   TEWEN  =      2605.35531937
  -Hartree energ DENC   =     -3202.00902977
  -exchange      EXHF   =         0.00000000
  -V(xc)+E(xc)   XCENC  =       -44.62471413
  PAW double counting   =       787.85914037     -709.89571686
  entropy T*S    EENTRO =        -0.00423682
  eigenvalues    EBANDS =      -156.61379085
  atomic energy  EATOM  =       685.12008660
  Solvation  Ediel_sol  =         0.00000000
  ---------------------------------------------------
  free energy    TOTEN  =       -20.91032034 eV

  energy without entropy =      -20.90608352  energy(sigma->0) =      -20.90820193


--------------------------------------------------------------------------------------------------------




--------------------------------------- Iteration      1(   7)  ---------------------------------------


    POTLOK:  cpu time    0.0221: real time    0.0223
    SETDIJ:  cpu time    0.0061: real time    0.0061
     EDDAV:  cpu time    1.0168: real time    1.0168
       DOS:  cpu time    0.0049: real time    0.0049
    CHARGE:  cpu time    0.0183: real time    0.0183
    MIXING:  cpu time    0.0006: real time    0.0006
    --------------------------------------------
      LOOP:  cpu time    1.0689: real time    1.0691

 eigenvalue-minimisations  :  3468
 total energy-change (2. order) : 0.4010738E+01  (-0.2851540E+01)
 number of electron      17.0000010 magnetization       2.3508988
 augmentation part       -1.2269553 magnetization       2.0034948

 Broyden mixing:
  rms(total) = 0.93254E+00    rms(broyden)= 0.93252E+00
  rms(prec ) = 0.10118E+01
  weight for this iteration     100.00

 eigenvalues of (default mixing * dielectric matrix)
  average eigenvalue GAMMA=   0.8316
  1.3833  0.2800

 Free energy of the ion-electron system (eV)
  ---------------------------------------------------
  alpha Z        PSCENC =        13.90262175
  Ewald energy   TEWEN  =      2605.35531937
  -Hartree energ DENC   =     -3216.64812144
  -exchange      EXHF   =         0.00000000
  -V(xc)+E(xc)   XCENC  =       -45.21897725
  PAW double counting   =       832.19510974     -756.06389604
  entropy T*S    EENTRO =        -0.00275294
  eigenvalues    EBANDS =      -135.53897253
  atomic energy  EATOM  =       685.12008660
  Solvation  Ediel_sol  =         0.00000000
  ---------------------------------------------------
  free energy    TOTEN  =       -16.89958275 eV

  energy without entropy =      -16.89682981  energy(sigma->0) =      -16.89820628


--------------------------------------------------------------------------------------------------------




--------------------------------------- Iteration      1(   8)  ---------------------------------------


    POTLOK:  cpu time    0.0224: real time    0.0226
    SETDIJ:  cpu time    0.0061: real time    0.0061
     EDDAV:  cpu time    1.1106: real time    1.1108
       DOS:  cpu time    0.0050: real time    0.0050
    CHARGE:  cpu time    0.0184: real time    0.0184
    MIXING:  cpu time    0.0006: real time    0.0006
    --------------------------------------------
      LOOP:  cpu time    1.1631: real time    1.1634

 eigenvalue-minimisations  :  3904
 total energy-change (2. order) : 0.1087566E+01  (-0.3494970E+00)
 number of electron      17.0000011 magnetization       2.2127856
 augmentation part       -0.9007697 magnetization       1.8810480

 Broyden mixing:
  rms(total) = 0.48382E+00    rms(broyden)= 0.48382E+00
  rms(prec ) = 0.52507E+00
  weight for this iteration     100.00

 eigenvalues of (default mixing * dielectric matrix)
  average eigenvalue GAMMA=   0.8750
  0.2953  0.7848  1.5449

 Free energy of the ion-electron system (eV)
  ---------------------------------------------------
  alpha Z        PSCENC =        13.90262175
  Ewald energy   TEWEN  =      2605.35531937
  -Hartree energ DENC   =     -3217.03390673
  -exchange      EXHF   =         0.00000000
  -V(xc)+E(xc)   XCENC  =       -44.80374217
  PAW double counting   =      1024.81204818     -948.86235435
  entropy T*S    EENTRO =        -0.00284331
  eigenvalues    EBANDS =      -134.29924589
  atomic energy  EATOM  =       685.12008660
  Solvation  Ediel_sol  =         0.00000000
  ---------------------------------------------------
  free energy    TOTEN  =       -15.81201654 eV

  energy without entropy =      -15.80917323  energy(sigma->0) =      -15.81059488


--------------------------------------------------------------------------------------------------------




--------------------------------------- Iteration      1(   9)  ---------------------------------------


    POTLOK:  cpu time    0.0195: real time    0.0221
    SETDIJ:  cpu time    0.0061: real time    0.0061
     EDDAV:  cpu time    1.1369: real time    1.1369
       DOS:  cpu time    0.0050: real time    0.0050
    CHARGE:  cpu time    0.0194: real time    0.0194
    MIXING:  cpu time    0.0008: real time    0.0008
    --------------------------------------------
      LOOP:  cpu time    1.1876: real time    1.1902

 eigenvalue-minimisations  :  3960
 total energy-change (2. order) :-0.5369903E-01  (-0.2506733E-01)
 number of electron      17.0000011 magnetization       2.0339531
 augmentation part       -0.6791330 magnetization       1.7278725

 Broyden mixing:
  rms(total) = 0.32390E+00    rms(broyden)= 0.32390E+00
  rms(prec ) = 0.34147E+00
  weight for this iteration     100.00

 eigenvalues of (default mixing * dielectric matrix)
  average eigenvalue GAMMA=   0.8080
  0.2900  1.1340  1.1340  0.6740

 Free energy of the ion-electron system (eV)
  ---------------------------------------------------
  alpha Z        PSCENC =        13.90262175
  Ewald energy   TEWEN  =      2605.35531937
  -Hartree energ DENC   =     -3219.00593791
  -exchange      EXHF   =         0.00000000
  -V(xc)+E(xc)   XCENC  =       -44.93572617
  PAW double counting   =      1032.55382471     -956.49528280
  entropy T*S    EENTRO =        -0.00219946
  eigenvalues    EBANDS =      -132.35842166
  atomic energy  EATOM  =       685.12008660
  Solvation  Ediel_sol  =         0.00000000
  ---------------------------------------------------
  free energy    TOTEN  =       -15.86571556 eV

  energy without entropy =      -15.86351610  energy(sigma->0) =      -15.86461583


--------------------------------------------------------------------------------------------------------




--------------------------------------- Iteration      1(  10)  ---------------------------------------


    POTLOK:  cpu time    0.0203: real time    0.0229
    SETDIJ:  cpu time    0.0063: real time    0.0063
     EDDAV:  cpu time    1.0951: real time    1.0952
       DOS:  cpu time    0.0049: real time    0.0049
    CHARGE:  cpu time    0.0183: real time    0.0182
    MIXING:  cpu time    0.0007: real time    0.0007
    --------------------------------------------
      LOOP:  cpu time    1.1456: real time    1.1483

 eigenvalue-minimisations  :  3836
 total energy-change (2. order) :-0.2068644E+00  (-0.1057266E-01)
 number of electron      17.0000011 magnetization       1.5275898
 augmentation part       -0.5283882 magnetization       1.2434815

 Broyden mixing:
  rms(total) = 0.20541E+00    rms(broyden)= 0.20540E+00
  rms(prec ) = 0.21083E+00
  weight for this iteration     100.00

 eigenvalues of (default mixing * dielectric matrix)
  average eigenvalue GAMMA=   1.1902
  2.1197  2.1197  0.2918  0.7099  0.7099

 Free energy of the ion-electron system (eV)
  ---------------------------------------------------
  alpha Z        PSCENC =        13.90262175
  Ewald energy   TEWEN  =      2605.35531937
  -Hartree energ DENC   =     -3221.36228124
  -exchange      EXHF   =         0.00000000
  -V(xc)+E(xc)   XCENC  =       -45.06673055
  PAW double counting   =      1010.73801099     -934.52833908
  entropy T*S    EENTRO =        -0.00209483
  eigenvalues    EBANDS =      -130.22917297
  atomic energy  EATOM  =       685.12008660
  Solvation  Ediel_sol  =         0.00000000
  ---------------------------------------------------
  free energy    TOTEN  =       -16.07257996 eV

  energy without entropy =      -16.07048513  energy(sigma->0) =      -16.07153255


--------------------------------------------------------------------------------------------------------




--------------------------------------- Iteration      1(  11)  ---------------------------------------


    POTLOK:  cpu time    0.0219: real time    0.0221
    SETDIJ:  cpu time    0.0062: real time    0.0062
     EDDAV:  cpu time    1.0105: real time    1.0105
       DOS:  cpu time    0.0050: real time    0.0050
    CHARGE:  cpu time    0.0189: real time    0.0189
    MIXING:  cpu time    0.0008: real time    0.0008
    --------------------------------------------
      LOOP:  cpu time    1.0632: real time    1.0634

 eigenvalue-minimisations  :  3416
 total energy-change (2. order) :-0.8155874E+00  (-0.6310135E-01)
 number of electron      17.0000011 magnetization       1.4370880
 augmentation part       -0.2533154 magnetization       1.2299617

 Broyden mixing:
  rms(total) = 0.19091E+00    rms(broyden)= 0.19090E+00
  rms(prec ) = 0.20322E+00
  weight for this iteration     100.00

 eigenvalues of (default mixing * dielectric matrix)
  average eigenvalue GAMMA=   1.2491
  2.3480  2.3480  0.2918  0.9530  0.9530  0.6009

 Free energy of the ion-electron system (eV)
  ---------------------------------------------------
  alpha Z        PSCENC =        13.90262175
  Ewald energy   TEWEN  =      2605.35531937
  -Hartree energ DENC   =     -3227.43639726
  -exchange      EXHF   =         0.00000000
  -V(xc)+E(xc)   XCENC  =       -45.41437689
  PAW double counting   =       989.71820232     -913.25587829
  entropy T*S    EENTRO =        -0.00228178
  eigenvalues    EBANDS =      -124.87546314
  atomic energy  EATOM  =       685.12008660
  Solvation  Ediel_sol  =         0.00000000
  ---------------------------------------------------
  free energy    TOTEN  =       -16.88816731 eV

  energy without entropy =      -16.88588553  energy(sigma->0) =      -16.88702642


--------------------------------------------------------------------------------------------------------




--------------------------------------- Iteration      1(  12)  ---------------------------------------


    POTLOK:  cpu time    0.0195: real time    0.0216
    SETDIJ:  cpu time    0.0061: real time    0.0061
     EDDAV:  cpu time    1.1116: real time    1.1115
       DOS:  cpu time    0.0049: real time    0.0049
    CHARGE:  cpu time    0.0191: real time    0.0191
    MIXING:  cpu time    0.0008: real time    0.0008
    --------------------------------------------
      LOOP:  cpu time    1.1620: real time    1.1641

 eigenvalue-minimisations  :  3916
 total energy-change (2. order) :-0.1926804E+00  (-0.4322139E-02)
 number of electron      17.0000011 magnetization       1.2750102
 augmentation part       -0.3272916 magnetization       1.0739805

 Broyden mixing:
  rms(total) = 0.12858E+00    rms(broyden)= 0.12858E+00
  rms(prec ) = 0.13414E+00
  weight for this iteration     100.00

 eigenvalues of (default mixing * dielectric matrix)
  average eigenvalue GAMMA=   1.1800
  2.2723  2.2723  1.1050  1.1050  0.2917  0.6070  0.6070

 Free energy of the ion-electron system (eV)
  ---------------------------------------------------
  alpha Z        PSCENC =        13.90262175
  Ewald energy   TEWEN  =      2605.35531937
  -Hartree energ DENC   =     -3227.53865858
  -exchange      EXHF   =         0.00000000
  -V(xc)+E(xc)   XCENC  =       -45.57441524
  PAW double counting   =      1016.42381139     -940.08908138
  entropy T*S    EENTRO =        -0.00233899
  eigenvalues    EBANDS =      -124.67819267
  atomic energy  EATOM  =       685.12008660
  Solvation  Ediel_sol  =         0.00000000
  ---------------------------------------------------
  free energy    TOTEN  =       -17.08084774 eV

  energy without entropy =      -17.07850875  energy(sigma->0) =      -17.07967825


--------------------------------------------------------------------------------------------------------




--------------------------------------- Iteration      1(  13)  ---------------------------------------


    POTLOK:  cpu time    0.0197: real time    0.0220
    SETDIJ:  cpu time    0.0061: real time    0.0061
     EDDAV:  cpu time    0.9030: real time    0.9030
       DOS:  cpu time    0.0049: real time    0.0049
    CHARGE:  cpu time    0.0190: real time    0.0190
    MIXING:  cpu time    0.0009: real time    0.0009
    --------------------------------------------
      LOOP:  cpu time    0.9537: real time    0.9559

 eigenvalue-minimisations  :  2952
 total energy-change (2. order) :-0.2310100E+00  (-0.5731116E-02)
 number of electron      17.0000011 magnetization       0.8993022
 augmentation part       -0.3543381 magnetization       0.7140432

 Broyden mixing:
  rms(total) = 0.93627E-01    rms(broyden)= 0.93627E-01
  rms(prec ) = 0.97565E-01
  weight for this iteration     100.00

 eigenvalues of (default mixing * dielectric matrix)
  average eigenvalue GAMMA=   1.5618
  4.5561  2.2719  2.2719  0.2917  0.9565  0.9565  0.5950  0.5950

 Free energy of the ion-electron system (eV)
  ---------------------------------------------------
  alpha Z        PSCENC =        13.90262175
  Ewald energy   TEWEN  =      2605.35531937
  -Hartree energ DENC   =     -3227.58532345
  -exchange      EXHF   =         0.00000000
  -V(xc)+E(xc)   XCENC  =       -45.73055307
  PAW double counting   =      1042.64538558     -966.38340105
  entropy T*S    EENTRO =        -0.00224602
  eigenvalues    EBANDS =      -124.63374744
  atomic energy  EATOM  =       685.12008660
  Solvation  Ediel_sol  =         0.00000000
  ---------------------------------------------------
  free energy    TOTEN  =       -17.31185773 eV

  energy without entropy =      -17.30961171  energy(sigma->0) =      -17.31073472


--------------------------------------------------------------------------------------------------------




--------------------------------------- Iteration      1(  14)  ---------------------------------------


    POTLOK:  cpu time    0.0195: real time    0.0223
    SETDIJ:  cpu time    0.0061: real time    0.0061
     EDDAV:  cpu time    0.9695: real time    0.9694
       DOS:  cpu time    0.0050: real time    0.0050
    CHARGE:  cpu time    0.0191: real time    0.0191
    MIXING:  cpu time    0.0010: real time    0.0010
    --------------------------------------------
      LOOP:  cpu time    1.0202: real time    1.0230

 eigenvalue-minimisations  :  3264
 total energy-change (2. order) :-0.4229887E+00  (-0.3010368E-01)
 number of electron      17.0000011 magnetization       0.7390541
 augmentation part       -0.4574006 magnetization       0.5752647

 Broyden mixing:
  rms(total) = 0.70533E-01    rms(broyden)= 0.70532E-01
  rms(prec ) = 0.72684E-01
  weight for this iteration     100.00

 eigenvalues of (default mixing * dielectric matrix)
  average eigenvalue GAMMA=   1.6555
  6.0237  2.0401  2.0401  1.5400  0.2917  1.0057  0.6910  0.6910  0.5764

 Free energy of the ion-electron system (eV)
  ---------------------------------------------------
  alpha Z        PSCENC =        13.90262175
  Ewald energy   TEWEN  =      2605.35531937
  -Hartree energ DENC   =     -3226.77274828
  -exchange      EXHF   =         0.00000000
  -V(xc)+E(xc)   XCENC  =       -46.06080502
  PAW double counting   =      1085.82906164    -1009.71312346
  entropy T*S    EENTRO =        -0.00146454
  eigenvalues    EBANDS =      -125.39379448
  atomic energy  EATOM  =       685.12008660
  Solvation  Ediel_sol  =         0.00000000
  ---------------------------------------------------
  free energy    TOTEN  =       -17.73484640 eV

  energy without entropy =      -17.73338186  energy(sigma->0) =      -17.73411413


--------------------------------------------------------------------------------------------------------




--------------------------------------- Iteration      1(  15)  ---------------------------------------


    POTLOK:  cpu time    0.0219: real time    0.0221
    SETDIJ:  cpu time    0.0061: real time    0.0061
     EDDAV:  cpu time    0.8792: real time    0.8793
       DOS:  cpu time    0.0050: real time    0.0050
    CHARGE:  cpu time    0.0192: real time    0.0192
    MIXING:  cpu time    0.0011: real time    0.0011
    --------------------------------------------
      LOOP:  cpu time    0.9324: real time    0.9328

 eigenvalue-minimisations  :  2836
 total energy-change (2. order) :-0.1080382E+00  (-0.7365065E-02)
 number of electron      17.0000011 magnetization       0.6924915
 augmentation part       -0.4402782 magnetization       0.5363204

 Broyden mixing:
  rms(total) = 0.37749E-01    rms(broyden)= 0.37749E-01
  rms(prec ) = 0.39972E-01
  weight for this iteration     100.00

 eigenvalues of (default mixing * dielectric matrix)
  average eigenvalue GAMMA=   1.6965
  6.7722  2.2053  1.9547  1.9547  0.2917  0.9749  0.8078  0.8078  0.5981  0.5981

 Free energy of the ion-electron system (eV)
  ---------------------------------------------------
  alpha Z        PSCENC =        13.90262175
  Ewald energy   TEWEN  =      2605.35531937
  -Hartree energ DENC   =     -3226.96705435
  -exchange      EXHF   =         0.00000000
  -V(xc)+E(xc)   XCENC  =       -46.15718140
  PAW double counting   =      1055.11774276     -978.90573034
  entropy T*S    EENTRO =        -0.00134195
  eigenvalues    EBANDS =      -125.30734699
  atomic energy  EATOM  =       685.12008660
  Solvation  Ediel_sol  =         0.00000000
  ---------------------------------------------------
  free energy    TOTEN  =       -17.84288456 eV

  energy without entropy =      -17.84154261  energy(sigma->0) =      -17.84221358


--------------------------------------------------------------------------------------------------------




--------------------------------------- Iteration      1(  16)  ---------------------------------------


    POTLOK:  cpu time    0.0196: real time    0.0218
    SETDIJ:  cpu time    0.0062: real time    0.0062
     EDDAV:  cpu time    0.9328: real time    0.9328
       DOS:  cpu time    0.0049: real time    0.0049
    CHARGE:  cpu time    0.0192: real time    0.0192
    MIXING:  cpu time    0.0013: real time    0.0012
    --------------------------------------------
      LOOP:  cpu time    0.9840: real time    0.9862

 eigenvalue-minimisations  :  3084
 total energy-change (2. order) :-0.1050538E+00  (-0.1303373E-02)
 number of electron      17.0000011 magnetization       0.6208460
 augmentation part       -0.4295695 magnetization       0.4641244

 Broyden mixing:
  rms(total) = 0.21495E-01    rms(broyden)= 0.21495E-01
  rms(prec ) = 0.23275E-01
  weight for this iteration     100.00

 eigenvalues of (default mixing * dielectric matrix)
  average eigenvalue GAMMA=   1.9534
  9.4551  2.5493  1.9822  1.9822  1.4815  0.2917  1.0204  0.8343  0.6683  0.6112
  0.6112

 Free energy of the ion-electron system (eV)
  ---------------------------------------------------
  alpha Z        PSCENC =        13.90262175
  Ewald energy   TEWEN  =      2605.35531937
  -Hartree energ DENC   =     -3226.29823070
  -exchange      EXHF   =         0.00000000
  -V(xc)+E(xc)   XCENC  =       -46.28546414
  PAW double counting   =      1041.33498967     -965.09653887
  entropy T*S    EENTRO =        -0.00126427
  eigenvalues    EBANDS =      -125.97945778
  atomic energy  EATOM  =       685.12008660
  Solvation  Ediel_sol  =         0.00000000
  ---------------------------------------------------
  free energy    TOTEN  =       -17.94793837 eV

  energy without entropy =      -17.94667410  energy(sigma->0) =      -17.94730624


--------------------------------------------------------------------------------------------------------




--------------------------------------- Iteration      1(  17)  ---------------------------------------


    POTLOK:  cpu time    0.0217: real time    0.0220
    SETDIJ:  cpu time    0.0061: real time    0.0061
     EDDAV:  cpu time    1.0346: real time    1.0345
       DOS:  cpu time    0.0049: real time    0.0049
    CHARGE:  cpu time    0.0199: real time    0.0199
    MIXING:  cpu time    0.0014: real time    0.0014
    --------------------------------------------
      LOOP:  cpu time    1.0885: real time    1.0887

 eigenvalue-minimisations  :  3496
 total energy-change (2. order) :-0.3054370E-01  (-0.3306918E-03)
 number of electron      17.0000011 magnetization       0.6168160
 augmentation part       -0.4154772 magnetization       0.4606047

 Broyden mixing:
  rms(total) = 0.80796E-02    rms(broyden)= 0.80794E-02
  rms(prec ) = 0.95616E-02
  weight for this iteration     100.00

 eigenvalues of (default mixing * dielectric matrix)
  average eigenvalue GAMMA=   1.9144
  9.9955  2.0391  2.0391  2.0504  2.0504  0.2917  0.9353  0.9353  0.7052  0.7052
  0.5908  0.6342

 Free energy of the ion-electron system (eV)
  ---------------------------------------------------
  alpha Z        PSCENC =        13.90262175
  Ewald energy   TEWEN  =      2605.35531937
  -Hartree energ DENC   =     -3225.46350157
  -exchange      EXHF   =         0.00000000
  -V(xc)+E(xc)   XCENC  =       -46.34145389
  PAW double counting   =      1028.96155524     -952.70006387
  entropy T*S    EENTRO =        -0.00128096
  eigenvalues    EBANDS =      -126.81176475
  atomic energy  EATOM  =       685.12008660
  Solvation  Ediel_sol  =         0.00000000
  ---------------------------------------------------
  free energy    TOTEN  =       -17.97848208 eV

  energy without entropy =      -17.97720111  energy(sigma->0) =      -17.97784159


--------------------------------------------------------------------------------------------------------




--------------------------------------- Iteration      1(  18)  ---------------------------------------


    POTLOK:  cpu time    0.0202: real time    0.0225
    SETDIJ:  cpu time    0.0063: real time    0.0063
     EDDAV:  cpu time    1.0148: real time    1.0147
       DOS:  cpu time    0.0049: real time    0.0049
    CHARGE:  cpu time    0.0195: real time    0.0195
    MIXING:  cpu time    0.0015: real time    0.0015
    --------------------------------------------
      LOOP:  cpu time    1.0671: real time    1.0694

 eigenvalue-minimisations  :  3460
 total energy-change (2. order) :-0.3348477E-02  (-0.4898152E-04)
 number of electron      17.0000011 magnetization       0.6090797
 augmentation part       -0.4128326 magnetization       0.4548562

 Broyden mixing:
  rms(total) = 0.69812E-02    rms(broyden)= 0.69812E-02
  rms(prec ) = 0.85385E-02
  weight for this iteration     100.00

 eigenvalues of (default mixing * dielectric matrix)
  average eigenvalue GAMMA=   1.8724
 10.0687  2.3757  2.3757  1.8500  1.8500  1.1525  0.2917  0.9303  0.7960  0.7960
  0.5837  0.6358  0.6358

 Free energy of the ion-electron system (eV)
  ---------------------------------------------------
  alpha Z        PSCENC =        13.90262175
  Ewald energy   TEWEN  =      2605.35531937
  -Hartree energ DENC   =     -3225.30498333
  -exchange      EXHF   =         0.00000000
  -V(xc)+E(xc)   XCENC  =       -46.34124260
  PAW double counting   =      1029.44622543     -953.18589573
  entropy T*S    EENTRO =        -0.00125479
  eigenvalues    EBANDS =      -126.97270726
  atomic energy  EATOM  =       685.12008660
  Solvation  Ediel_sol  =         0.00000000
  ---------------------------------------------------
  free energy    TOTEN  =       -17.98183055 eV

  energy without entropy =      -17.98057576  energy(sigma->0) =      -17.98120316


--------------------------------------------------------------------------------------------------------




--------------------------------------- Iteration      1(  19)  ---------------------------------------


    POTLOK:  cpu time    0.0220: real time    0.0222
    SETDIJ:  cpu time    0.0061: real time    0.0061
     EDDAV:  cpu time    0.8788: real time    0.8787
       DOS:  cpu time    0.0049: real time    0.0049
    CHARGE:  cpu time    0.0193: real time    0.0193
    MIXING:  cpu time    0.0014: real time    0.0014
    --------------------------------------------
      LOOP:  cpu time    0.9324: real time    0.9327

 eigenvalue-minimisations  :  2832
 total energy-change (2. order) :-0.1527562E-02  (-0.6321685E-04)
 number of electron      17.0000011 magnetization       0.6040167
 augmentation part       -0.4150427 magnetization       0.4500335

 Broyden mixing:
  rms(total) = 0.44129E-02    rms(broyden)= 0.44129E-02
  rms(prec ) = 0.52926E-02
  weight for this iteration     100.00

 eigenvalues of (default mixing * dielectric matrix)
  average eigenvalue GAMMA=   1.8873
 10.1754  2.6361  2.6361  1.8755  1.8755  1.7333  0.2917  0.9541  0.8672  0.8672
  0.6652  0.6652  0.6034  0.5766

 Free energy of the ion-electron system (eV)
  ---------------------------------------------------
  alpha Z        PSCENC =        13.90262175
  Ewald energy   TEWEN  =      2605.35531937
  -Hartree energ DENC   =     -3224.36236183
  -exchange      EXHF   =         0.00000000
  -V(xc)+E(xc)   XCENC  =       -46.35766505
  PAW double counting   =      1028.99344664     -952.73596498
  entropy T*S    EENTRO =        -0.00128024
  eigenvalues    EBANDS =      -127.89756037
  atomic energy  EATOM  =       685.12008660
  Solvation  Ediel_sol  =         0.00000000
  ---------------------------------------------------
  free energy    TOTEN  =       -17.98335811 eV

  energy without entropy =      -17.98207787  energy(sigma->0) =      -17.98271799


--------------------------------------------------------------------------------------------------------




--------------------------------------- Iteration      1(  20)  ---------------------------------------


    POTLOK:  cpu time    0.0193: real time    0.0216
    SETDIJ:  cpu time    0.0061: real time    0.0061
     EDDAV:  cpu time    1.0008: real time    1.0010
       DOS:  cpu time    0.0050: real time    0.0050
    CHARGE:  cpu time    0.0192: real time    0.0192
    MIXING:  cpu time    0.0015: real time    0.0015
    --------------------------------------------
      LOOP:  cpu time    1.0519: real time    1.0544

 eigenvalue-minimisations  :  3400
 total energy-change (2. order) :-0.9039501E-03  (-0.3920886E-04)
 number of electron      17.0000011 magnetization       0.6026036
 augmentation part       -0.4193203 magnetization       0.4478084

 Broyden mixing:
  rms(total) = 0.27689E-02    rms(broyden)= 0.27689E-02
  rms(prec ) = 0.33817E-02
  weight for this iteration     100.00

 eigenvalues of (default mixing * dielectric matrix)
  average eigenvalue GAMMA=   1.8860
 10.2160  2.9333  2.9333  1.9208  1.9208  2.0324  0.2917  0.9276  0.9276  0.8304
  0.8304  0.5868  0.6699  0.6347  0.6347

 Free energy of the ion-electron system (eV)
  ---------------------------------------------------
  alpha Z        PSCENC =        13.90262175
  Ewald energy   TEWEN  =      2605.35531937
  -Hartree energ DENC   =     -3223.72855461
  -exchange      EXHF   =         0.00000000
  -V(xc)+E(xc)   XCENC  =       -46.36937246
  PAW double counting   =      1029.48094729     -953.22711311
  entropy T*S    EENTRO =        -0.00130996
  eigenvalues    EBANDS =      -128.51688694
  atomic energy  EATOM  =       685.12008660
  Solvation  Ediel_sol  =         0.00000000
  ---------------------------------------------------
  free energy    TOTEN  =       -17.98426206 eV

  energy without entropy =      -17.98295211  energy(sigma->0) =      -17.98360709


--------------------------------------------------------------------------------------------------------




--------------------------------------- Iteration      1(  21)  ---------------------------------------


    POTLOK:  cpu time    0.0202: real time    0.0221
    SETDIJ:  cpu time    0.0062: real time    0.0062
     EDDAV:  cpu time    0.9138: real time    0.9138
       DOS:  cpu time    0.0050: real time    0.0050
    CHARGE:  cpu time    0.0193: real time    0.0193
    MIXING:  cpu time    0.0016: real time    0.0016
    --------------------------------------------
      LOOP:  cpu time    0.9661: real time    0.9680

 eigenvalue-minimisations  :  2976
 total energy-change (2. order) :-0.2021544E-03  (-0.6844446E-05)
 number of electron      17.0000011 magnetization       0.6025635
 augmentation part       -0.4179581 magnetization       0.4478795

 Broyden mixing:
  rms(total) = 0.11685E-02    rms(broyden)= 0.11685E-02
  rms(prec ) = 0.17183E-02
  weight for this iteration     100.00

 eigenvalues of (default mixing * dielectric matrix)
  average eigenvalue GAMMA=   1.9021
 10.1891  3.9841  2.5449  1.9439  1.9439  2.1663  1.3925  0.2917  1.0179  0.8550
  0.8550  0.7043  0.7043  0.5860  0.6270  0.6270

 Free energy of the ion-electron system (eV)
  ---------------------------------------------------
  alpha Z        PSCENC =        13.90262175
  Ewald energy   TEWEN  =      2605.35531937
  -Hartree energ DENC   =     -3223.48225237
  -exchange      EXHF   =         0.00000000
  -V(xc)+E(xc)   XCENC  =       -46.36933500
  PAW double counting   =      1030.65882219     -954.40473009
  entropy T*S    EENTRO =        -0.00130046
  eigenvalues    EBANDS =      -128.76369623
  atomic energy  EATOM  =       685.12008660
  Solvation  Ediel_sol  =         0.00000000
  ---------------------------------------------------
  free energy    TOTEN  =       -17.98446422 eV

  energy without entropy =      -17.98316376  energy(sigma->0) =      -17.98381399


--------------------------------------------------------------------------------------------------------




--------------------------------------- Iteration      1(  22)  ---------------------------------------


    POTLOK:  cpu time    0.0195: real time    0.0226
    SETDIJ:  cpu time    0.0061: real time    0.0061
     EDDAV:  cpu time    0.8565: real time    0.8564
       DOS:  cpu time    0.0050: real time    0.0050
    CHARGE:  cpu time    0.0192: real time    0.0192
    MIXING:  cpu time    0.0017: real time    0.0017
    --------------------------------------------
      LOOP:  cpu time    0.9080: real time    0.9111

 eigenvalue-minimisations  :  2728
 total energy-change (2. order) :-0.3784089E-03  (-0.7592328E-05)
 number of electron      17.0000011 magnetization       0.6014018
 augmentation part       -0.4178765 magnetization       0.4468405

 Broyden mixing:
  rms(total) = 0.93482E-03    rms(broyden)= 0.93482E-03
  rms(prec ) = 0.11512E-02
  weight for this iteration     100.00

 eigenvalues of (default mixing * dielectric matrix)
  average eigenvalue GAMMA=   1.9271
 10.1990  4.6151  2.4995  2.4995  1.9084  1.9084  1.9882  0.2917  0.9897  0.9897
  0.8375  0.8375  0.7030  0.6430  0.6430  0.5854  0.6213

 Free energy of the ion-electron system (eV)
  ---------------------------------------------------
  alpha Z        PSCENC =        13.90262175
  Ewald energy   TEWEN  =      2605.35531937
  -Hartree energ DENC   =     -3223.13515336
  -exchange      EXHF   =         0.00000000
  -V(xc)+E(xc)   XCENC  =       -46.37111076
  PAW double counting   =      1031.35484220     -955.10188159
  entropy T*S    EENTRO =        -0.00129450
  eigenvalues    EBANDS =      -129.10827234
  atomic energy  EATOM  =       685.12008660
  Solvation  Ediel_sol  =         0.00000000
  ---------------------------------------------------
  free energy    TOTEN  =       -17.98484263 eV

  energy without entropy =      -17.98354813  energy(sigma->0) =      -17.98419538


--------------------------------------------------------------------------------------------------------




--------------------------------------- Iteration      1(  23)  ---------------------------------------


    POTLOK:  cpu time    0.0194: real time    0.0221
    SETDIJ:  cpu time    0.0061: real time    0.0061
     EDDAV:  cpu time    0.8487: real time    0.8487
       DOS:  cpu time    0.0050: real time    0.0050
    CHARGE:  cpu time    0.0192: real time    0.0192
    MIXING:  cpu time    0.0018: real time    0.0018
    --------------------------------------------
      LOOP:  cpu time    0.9003: real time    0.9030

 eigenvalue-minimisations  :  2656
 total energy-change (2. order) :-0.1097113E-03  (-0.2679382E-05)
 number of electron      17.0000011 magnetization       0.6003015
 augmentation part       -0.4188954 magnetization       0.4458122

 Broyden mixing:
  rms(total) = 0.11089E-02    rms(broyden)= 0.11089E-02
  rms(prec ) = 0.12440E-02
  weight for this iteration     100.00

 eigenvalues of (default mixing * dielectric matrix)
  average eigenvalue GAMMA=   1.9589
 10.2096  5.3265  3.0680  2.2418  2.2418  1.9471  1.9471  0.2917  1.1979  1.0115
  0.8919  0.8919  0.7777  0.7500  0.6361  0.6361  0.5870  0.6056

 Free energy of the ion-electron system (eV)
  ---------------------------------------------------
  alpha Z        PSCENC =        13.90262175
  Ewald energy   TEWEN  =      2605.35531937
  -Hartree energ DENC   =     -3222.95976558
  -exchange      EXHF   =         0.00000000
  -V(xc)+E(xc)   XCENC  =       -46.37213494
  PAW double counting   =      1031.53948815     -955.28791332
  entropy T*S    EENTRO =        -0.00129916
  eigenvalues    EBANDS =      -129.28135522
  atomic energy  EATOM  =       685.12008660
  Solvation  Ediel_sol  =         0.00000000
  ---------------------------------------------------
  free energy    TOTEN  =       -17.98495234 eV

  energy without entropy =      -17.98365318  energy(sigma->0) =      -17.98430276


--------------------------------------------------------------------------------------------------------




--------------------------------------- Iteration      1(  24)  ---------------------------------------


    POTLOK:  cpu time    0.0193: real time    0.0216
    SETDIJ:  cpu time    0.0061: real time    0.0061
     EDDAV:  cpu time    0.7981: real time    0.7981
       DOS:  cpu time    0.0049: real time    0.0049
    CHARGE:  cpu time    0.0194: real time    0.0194
    MIXING:  cpu time    0.0019: real time    0.0019
    --------------------------------------------
      LOOP:  cpu time    0.8496: real time    0.8519

 eigenvalue-minimisations  :  2408
 total energy-change (2. order) :-0.3243153E-04  (-0.1071350E-05)
 number of electron      17.0000011 magnetization       0.6001215
 augmentation part       -0.4171835 magnetization       0.4456916

 Broyden mixing:
  rms(total) = 0.78074E-03    rms(broyden)= 0.78073E-03
  rms(prec ) = 0.87318E-03
  weight for this iteration     100.00

 eigenvalues of (default mixing * dielectric matrix)
  average eigenvalue GAMMA=   1.9812
 10.1946  6.3030  3.1663  2.3761  2.3761  1.9427  1.9427  1.5507  0.2917  0.9819
  0.9819  0.8436  0.8436  0.6949  0.6949  0.6335  0.6335  0.5952  0.5952

 Free energy of the ion-electron system (eV)
  ---------------------------------------------------
  alpha Z        PSCENC =        13.90262175
  Ewald energy   TEWEN  =      2605.35531937
  -Hartree energ DENC   =     -3222.89293905
  -exchange      EXHF   =         0.00000000
  -V(xc)+E(xc)   XCENC  =       -46.37221549
  PAW double counting   =      1030.99073293     -954.73731251
  entropy T*S    EENTRO =        -0.00129381
  eigenvalues    EBANDS =      -129.34998457
  atomic energy  EATOM  =       685.12008660
  Solvation  Ediel_sol  =         0.00000000
  ---------------------------------------------------
  free energy    TOTEN  =       -17.98498477 eV

  energy without entropy =      -17.98369096  energy(sigma->0) =      -17.98433787


--------------------------------------------------------------------------------------------------------




--------------------------------------- Iteration      1(  25)  ---------------------------------------


    POTLOK:  cpu time    0.0198: real time    0.0220
    SETDIJ:  cpu time    0.0061: real time    0.0061
     EDDAV:  cpu time    0.7279: real time    0.7279
       DOS:  cpu time    0.0049: real time    0.0049
    CHARGE:  cpu time    0.0193: real time    0.0193
    MIXING:  cpu time    0.0021: real time    0.0021
    --------------------------------------------
      LOOP:  cpu time    0.7800: real time    0.7822

 eigenvalue-minimisations  :  2064
 total energy-change (2. order) :-0.1646171E-04  (-0.3395004E-06)
 number of electron      17.0000011 magnetization       0.6003101
 augmentation part       -0.4176403 magnetization       0.4458513

 Broyden mixing:
  rms(total) = 0.37940E-03    rms(broyden)= 0.37940E-03
  rms(prec ) = 0.42933E-03
  weight for this iteration     100.00

 eigenvalues of (default mixing * dielectric matrix)
  average eigenvalue GAMMA=   2.0101
 10.1795  6.8454  3.5084  2.6128  2.6128  1.9357  1.9357  1.7008  0.2917  1.0183
  1.0183  0.9451  0.8734  0.8734  0.7307  0.6439  0.6439  0.6455  0.5931  0.5931

 Free energy of the ion-electron system (eV)
  ---------------------------------------------------
  alpha Z        PSCENC =        13.90262175
  Ewald energy   TEWEN  =      2605.35531937
  -Hartree energ DENC   =     -3222.83789467
  -exchange      EXHF   =         0.00000000
  -V(xc)+E(xc)   XCENC  =       -46.37295744
  PAW double counting   =      1030.86305225     -954.60998081
  entropy T*S    EENTRO =        -0.00129611
  eigenvalues    EBANDS =      -129.40395218
  atomic energy  EATOM  =       685.12008660
  Solvation  Ediel_sol  =         0.00000000
[...]
  band No.  band energies     occupation 
      1     -15.8103      1.00000
      2     -15.2938      1.00000
      3      -6.5267      1.00000
      4      -6.4044      1.00000
      5      -5.8925      1.00000
      6      -4.6653      1.00000
      7      -4.1383      1.00000
      8      -3.7406      1.00000
      9      -2.1061      0.00000
     10      -1.3212      0.00000
     11      -0.8720      0.00000
     12      -0.0359      0.00000
     13       0.5640      0.00000
     14       3.5535      0.00000
     15       3.7728      0.00000
     16       4.4010      0.00000

 k-point    32 :      -0.1111    0.3333    0.0000
  band No.  band energies     occupation 
      1     -15.8103      1.00000
      2     -15.2938      1.00000
      3      -6.5267      1.00000
      4      -6.4044      1.00000
      5      -5.8925      1.00000
      6      -4.6653      1.00000
      7      -4.1383      1.00000
      8      -3.7406      1.00000
      9      -2.1061      0.00000
     10      -1.3212      0.00000
     11      -0.8720      0.00000
     12      -0.0359      0.00000
     13       0.5640      0.00000
     14       3.5535      0.00000
     15       3.7728      0.00000
     16       4.4010      0.00000

 k-point    33 :       0.0000    0.4444    0.0000
  band No.  band energies     occupation 
      1     -15.0616      1.00000
      2     -14.8881      1.00000
      3      -8.0486      1.00000
      4      -7.1733      1.00000
      5      -5.5532      1.00000
      6      -4.7463      1.00000
      7      -4.6259      1.00000
      8      -3.2534      1.00000
      9      -2.8296      1.00000
     10      -1.1911      0.00000
     11      -0.7348      0.00000
     12       0.8271      0.00000
     13       0.9133      0.00000
     14       3.2058      0.00000
     15       3.6543      0.00000
     16       4.7749      0.00000

 k-point    34 :       0.1111    0.4444    0.0000
  band No.  band energies     occupation 
      1     -14.9176      1.00000
      2     -14.8153      1.00000
      3      -8.0489      1.00000
      4      -7.1694      1.00000
      5      -5.4597      1.00000
      6      -5.0591      1.00000
      7      -4.6139      1.00000
      8      -4.3115      1.00000
      9      -2.2094      0.04553
     10      -1.1729      0.00000
     11      -0.7674      0.00000
     12       0.3298      0.00000
     13       0.9345      0.00000
     14       3.7160      0.00000
     15       3.7510      0.00000
     16       5.5283      0.00000

 k-point    35 :       0.2222    0.4444    0.0000
  band No.  band energies     occupation 
      1     -14.8447      1.00000
      2     -14.7682      1.00000
      3      -7.5089      1.00000
      4      -6.9781      1.00000
      5      -5.8250      1.00000
      6      -5.4326      1.00000
      7      -5.1418      1.00000
      8      -4.7828      1.00000
      9      -1.6416      0.00000
     10      -1.1957      0.00000
     11      -0.9048      0.00000
     12      -0.1517      0.00000
     13       0.7898      0.00000
     14       4.1272      0.00000
     15       4.5307      0.00000
     16       5.3744      0.00000

 k-point    36 :       0.3333    0.4444    0.0000
  band No.  band energies     occupation 
      1     -14.8447      1.00000
      2     -14.7682      1.00000
      3      -7.5089      1.00000
      4      -6.9781      1.00000
      5      -5.8250      1.00000
      6      -5.4326      1.00000
      7      -5.1418      1.00000
      8      -4.7828      1.00000
      9      -1.6416      0.00000
     10      -1.1957      0.00000
     11      -0.9048      0.00000
     12      -0.1517      0.00000
     13       0.7898      0.00000
     14       4.1272      0.00000
     15       4.5307      0.00000
     16       5.3744      0.00000

 k-point    37 :       0.4444    0.4444    0.0000
  band No.  band energies     occupation 
      1     -14.9176      1.00000
      2     -14.8153      1.00000
      3      -8.0489      1.00000
      4      -7.1694      1.00000
      5      -5.4597      1.00000
      6      -5.0591      1.00000
      7      -4.6139      1.00000
      8      -4.3115      1.00000
      9      -2.2094      0.04553
     10      -1.1729      0.00000
     11      -0.7674      0.00000
     12       0.3298      0.00000
     13       0.9345      0.00000
     14       3.7160      0.00000
     15       3.7510      0.00000
     16       5.5283      0.00000

 k-point    38 :      -0.4444    0.4444    0.0000
  band No.  band energies     occupation 
      1     -15.0616      1.00000
      2     -14.8881      1.00000
      3      -8.0486      1.00000
      4      -7.1733      1.00000
      5      -5.5532      1.00000
      6      -4.7463      1.00000
      7      -4.6259      1.00000
      8      -3.2534      1.00000
      9      -2.8296      1.00000
     10      -1.1911      0.00000
     11      -0.7348      0.00000
     12       0.8271      0.00000
     13       0.9133      0.00000
     14       3.2058      0.00000
     15       3.6543      0.00000
     16       4.7749      0.00000

 k-point    39 :      -0.3333    0.4444    0.0000
  band No.  band energies     occupation 
      1     -15.2079      1.00000
      2     -14.9579      1.00000
      3      -7.5050      1.00000
      4      -6.9301      1.00000
      5      -5.6508      1.00000
      6      -5.0175      1.00000
      7      -4.4112      1.00000
      8      -4.2454      1.00000
      9      -2.1529      0.00051
     10      -1.2378      0.00000
     11      -0.8043      0.00000
     12       0.1490      0.00000
     13       0.8743      0.00000
     14       3.6645      0.00000
     15       4.5662      0.00000
     16       4.8119      0.00000

 k-point    40 :      -0.2222    0.4444    0.0000
  band No.  band energies     occupation 
      1     -15.2691      1.00000
      2     -14.9871      1.00000
      3      -6.8981      1.00000
      4      -6.8399      1.00000
      5      -5.6902      1.00000
      6      -5.1469      1.00000
      7      -5.0980      1.00000
      8      -4.2974      1.00000
      9      -1.7085      0.00000
     10      -1.4129      0.00000
     11      -0.8264      0.00000
     12      -0.3357      0.00000
     13       0.8391      0.00000
     14       4.2003      0.00000
     15       4.4385      0.00000
     16       5.2062      0.00000

 k-point    41 :      -0.1111    0.4444    0.0000
  band No.  band energies     occupation 
      1     -15.2079      1.00000
      2     -14.9579      1.00000
      3      -7.5050      1.00000
      4      -6.9301      1.00000
      5      -5.6508      1.00000
      6      -5.0175      1.00000
      7      -4.4112      1.00000
      8      -4.2454      1.00000
      9      -2.1529      0.00051
     10      -1.2378      0.00000
     11      -0.8043      0.00000
     12       0.1490      0.00000
     13       0.8743      0.00000
     14       3.6645      0.00000
     15       4.5662      0.00000
     16       4.8119      0.00000


--------------------------------------------------------------------------------------------------------


 soft charge-density along one line, spin component           1
         0         1         2         3         4         5         6         7         8         9
 total charge-density along one line
 
 soft charge-density along one line, spin component           2
         0         1         2         3         4         5         6         7         8         9
 total charge-density along one line
 
 pseudopotential strength for first ion, spin component:           1
 30.895  35.158   0.000   0.067  -0.000   0.000   0.096  -0.000
 35.158  40.013   0.000   0.076  -0.000   0.000   0.109  -0.000
  0.000   0.000   7.228   0.000  -0.000  10.191   0.000  -0.000
  0.067   0.076   0.000   7.224  -0.000   0.000  10.186  -0.000
 -0.000  -0.000  -0.000  -0.000   7.228  -0.000  -0.000  10.191
  0.000   0.000  10.191   0.000  -0.000  14.403   0.000  -0.000
  0.096   0.109   0.000  10.186  -0.000   0.000  14.396  -0.000
 -0.000  -0.000  -0.000  -0.000  10.191  -0.000  -0.000  14.403
  0.000   0.000   0.001  -0.000   0.000   0.001  -0.000   0.000
  0.000   0.000   0.020  -0.000  -0.000   0.028  -0.000  -0.000
 -0.003  -0.004  -0.000   0.022   0.000  -0.000   0.031   0.000
 -0.000  -0.000  -0.000   0.000   0.020  -0.000   0.000   0.028
  0.000   0.000  -0.000  -0.000  -0.001  -0.000  -0.000  -0.001
 pseudopotential strength for first ion, spin component:           2
 30.900  35.163   0.000   0.071  -0.000   0.000   0.102  -0.000
 35.163  40.019   0.000   0.081  -0.000   0.000   0.116  -0.000
  0.000   0.000   7.233   0.000  -0.000  10.199   0.000  -0.000
  0.071   0.081   0.000   7.226  -0.000   0.000  10.188  -0.000
 -0.000  -0.000  -0.000  -0.000   7.233  -0.000  -0.000  10.199
  0.000   0.000  10.199   0.000  -0.000  14.414   0.000  -0.000
  0.102   0.116   0.000  10.188  -0.000   0.000  14.399  -0.000
 -0.000  -0.000  -0.000  -0.000  10.199  -0.000  -0.000  14.414
 -0.000  -0.000   0.001  -0.000   0.000   0.001  -0.000   0.000
  0.000   0.000   0.021  -0.000  -0.000   0.029  -0.000  -0.000
 -0.007  -0.008  -0.000   0.024   0.000  -0.000   0.033   0.000
 -0.000  -0.000  -0.000   0.000   0.021  -0.000   0.000   0.029
 -0.000  -0.000  -0.000  -0.000  -0.001  -0.000  -0.000  -0.001
 total augmentation occupancy for first ion, spin component:           1
  5.825  -3.060  -0.000   1.755   0.000   0.000  -0.375  -0.000  -0.000  -0.000  -0.018   0.000  -0.000
 -3.060   2.380   0.000  -1.625  -0.000  -0.000   0.291   0.000   0.000   0.000   0.020  -0.000   0.000
 -0.000   0.000   2.374  -0.000  -0.000  -0.416   0.000   0.000   0.042   0.146   0.000  -0.000   0.000
  1.755  -1.625  -0.000   2.601   0.000   0.000  -0.444  -0.000  -0.000  -0.000   0.095   0.000  -0.000
  0.000  -0.000  -0.000   0.000   2.374   0.000  -0.000  -0.416  -0.000  -0.000  -0.000   0.146  -0.042
  0.000  -0.000  -0.416   0.000   0.000   0.094  -0.000  -0.000  -0.004  -0.023  -0.000   0.000  -0.000
 -0.375   0.291   0.000  -0.444  -0.000  -0.000   0.091   0.000   0.000   0.000  -0.025  -0.000   0.000
 -0.000   0.000   0.000  -0.000  -0.416  -0.000   0.000   0.094   0.000   0.000   0.000  -0.023   0.004
 -0.000   0.000   0.042  -0.000  -0.000  -0.004   0.000   0.000   0.017  -0.001  -0.000   0.000   0.000
 -0.000   0.000   0.146  -0.000  -0.000  -0.023   0.000   0.000  -0.001   0.014  -0.000  -0.000  -0.000
 -0.018   0.020   0.000   0.095  -0.000  -0.000  -0.025   0.000  -0.000  -0.000   0.017   0.000  -0.000
  0.000  -0.000  -0.000   0.000   0.146   0.000  -0.000  -0.023   0.000  -0.000   0.000   0.014   0.001
 -0.000   0.000   0.000  -0.000  -0.042  -0.000   0.000   0.004   0.000  -0.000  -0.000   0.001   0.017
 total augmentation occupancy for first ion, spin component:           2
 -0.024  -0.002   0.000   0.036   0.000  -0.000  -0.004  -0.000   0.000   0.000  -0.004  -0.000   0.000
 -0.002   0.022  -0.000  -0.041  -0.000   0.000   0.004   0.000   0.000  -0.000   0.006   0.000   0.000
  0.000  -0.000  -0.031   0.000   0.000  -0.004  -0.000  -0.000   0.002  -0.000  -0.000   0.000  -0.000
  0.036  -0.041   0.000  -0.000   0.000  -0.000  -0.000  -0.000  -0.000   0.000  -0.009  -0.000  -0.000
  0.000  -0.000   0.000   0.000  -0.031  -0.000  -0.000  -0.004   0.000   0.000   0.000  -0.000  -0.002
 -0.000   0.000  -0.004  -0.000  -0.000   0.002   0.000   0.000  -0.000  -0.001  -0.000  -0.000  -0.000
 -0.004   0.004  -0.000  -0.000  -0.000   0.000   0.002   0.000   0.000  -0.000  -0.000   0.000   0.000
 -0.000   0.000  -0.000  -0.000  -0.004   0.000   0.000   0.002   0.000  -0.000   0.000  -0.001   0.000
  0.000   0.000   0.002  -0.000   0.000  -0.000   0.000   0.000   0.001  -0.000   0.000   0.000  -0.000
  0.000  -0.000  -0.000   0.000   0.000  -0.001  -0.000  -0.000  -0.000   0.001   0.000  -0.000  -0.000
 -0.004   0.006  -0.000  -0.009   0.000  -0.000  -0.000   0.000   0.000   0.000   0.002  -0.000   0.000
 -0.000   0.000   0.000  -0.000  -0.000  -0.000   0.000  -0.001   0.000  -0.000  -0.000   0.001   0.000
  0.000   0.000  -0.000  -0.000  -0.002  -0.000   0.000   0.000  -0.000  -0.000   0.000   0.000   0.001


------------------------ aborting loop because EDIFF is reached ----------------------------------------


 


 total charge     
 
# of ion       s       p       d       tot
------------------------------------------
    1        1.482   2.318   0.050   3.849
    2        1.482   2.318   0.050   3.849
    3        0.434   0.686   3.511   4.632
--------------------------------------------------
tot          3.398   5.321   3.611  12.330
 


 magnetization (x)
 
# of ion       s       p       d       tot
------------------------------------------
    1       -0.002  -0.039   0.003  -0.037
    2       -0.002  -0.039   0.003  -0.037
    3        0.008   0.008   0.634   0.650
--------------------------------------------------
tot          0.005  -0.070   0.641   0.576
 
    CHARGE:  cpu time    0.0193: real time    0.0193
    FORLOC:  cpu time    0.0004: real time    0.0004
    FORNL :  cpu time    0.0967: real time    0.0967
    STRESS:  cpu time    0.2896: real time    0.2896
    FORCOR:  cpu time    0.0181: real time    0.0181
    FORHAR:  cpu time    0.0022: real time    0.0022
    MIXING:  cpu time    0.0006: real time    0.0006
    OFIELD:  cpu time    0.0000: real time    0.0000

 ---------------------------------------------------------------------------------------------

         DFTD3 V3.0 Rev 1        
 Edisp (eV)   -0.97150

 E6    (eV) :    -0.5271
 E8    (eV) :    -0.4444
 % E8        : 45.75
    FORVDW:  cpu time    0.0222: real time    0.0222

  FORCE on cell =-STRESS in cart. coord.  units (eV):
  Direction    XX          YY          ZZ          XY          YZ          ZX
  --------------------------------------------------------------------------------------
  Alpha Z    13.90262    13.90262    13.90262
  Ewald    3094.42732  3094.42735 -3589.81513    -0.00002    -0.00002     0.00001
  Hartree  3186.68159  3186.68160 -3156.50586    -0.00000    -0.00001     0.00000
  E(xc)     -66.36422   -66.36421   -67.46101    -0.00001    -0.00000     0.00000
  Local   -6498.50662 -6498.50646  6522.86628    -0.00013     0.00003    -0.00001
  n-local    82.04282    82.04283    87.01374    -0.00000    -0.00000     0.00000
  augment    11.80679    11.80664    11.73678     0.00014     0.00000    -0.00000
  Kinetic   176.60559   176.60559   178.70855    -0.00000     0.00000    -0.00000
  Fock        0.00000     0.00000     0.00000     0.00000     0.00000     0.00000
  vdW        -0.97879    -0.97879    -0.33822     0.00000     0.00000    -0.00000
  -------------------------------------------------------------------------------------
  Total      -0.38288    -0.38285     0.10775    -0.00003     0.00000    -0.00000
  in kB      -2.81473    -2.81446     0.79212    -0.00023     0.00001    -0.00001
  external pressure =       -1.61 kB  Pullay stress =        0.00 kB


 VOLUME and BASIS-vectors are now :
 -----------------------------------------------------------------------------
  energy-cutoff  :      400.00
  volume of cell :      217.94
      direct lattice vectors                 reciprocal lattice vectors
     2.864537506 -1.653841500  0.000000000     0.349096494  0.000000000  0.000000000
     0.000000000  3.307683000  0.000000000     0.174548247  0.302326432  0.000000000
     0.000000000  0.000000000 23.001852000     0.000000000  0.000000000  0.043474760

  length of vectors
     3.307683000  3.307683000 23.001852000     0.349096494  0.349096494  0.043474760


 FORCES acting on ions
    electron-ion (+dipol)            ewald-force                    non-local-force                 convergence-correction
 -----------------------------------------------------------------------------------------------
   0.576E-05 -.886E-05 0.470E+03   -.421E-05 0.703E-05 -.472E+03   -.126E-05 0.205E-05 0.195E+01   -.177E-06 -.902E-07 -.466E-01
   -.418E-05 0.775E-05 -.470E+03   0.283E-05 -.548E-05 0.472E+03   0.127E-05 -.219E-05 -.195E+01   0.656E-07 -.276E-07 0.472E-01
   -.126E-05 0.183E-05 -.156E-01   0.138E-05 -.155E-05 0.128E-01   -.277E-06 0.955E-07 0.242E-02   -.726E-07 -.126E-06 0.859E-03
 -----------------------------------------------------------------------------------------------
   0.318E-06 0.726E-06 -.250E-02   0.139E-14 -.592E-14 0.568E-13   -.274E-06 -.449E-07 0.323E-02   -.184E-06 -.243E-06 0.144E-02
 
 
 POSITION                                       TOTAL-FORCE (eV/Angst)
 -----------------------------------------------------------------------------------
      1.90969     -0.00000      2.55994         0.000000     -0.000000     -0.009148
      0.95485      1.65384      5.71537         0.000000     -0.000000      0.009497
     -0.00000      0.00000      4.13794        -0.000000      0.000000     -0.000349
 -----------------------------------------------------------------------------------
    total drift:                               -0.000000      0.000000      0.002175


--------------------------------------------------------------------------------------------------------



  FREE ENERGIE OF THE ION-ELECTRON SYSTEM (eV)
  ---------------------------------------------------
  free  energy   TOTEN  =       -18.95862392 eV

  energy  without entropy=      -18.95730942  energy(sigma->0) =      -18.95796667
 
 d Force = 0.7084586E-04[ 0.352E-04, 0.106E-03]  d Energy = 0.7413191E-04-0.329E-05
 d Force = 0.1784661E+01[ 0.178E+01, 0.178E+01]  d Ewald  = 0.1784661E+01-0.122E-06


--------------------------------------------------------------------------------------------------------


    POTLOK:  cpu time    0.0264: real time    0.0264


--------------------------------------------------------------------------------------------------------


 Quasi-Newton relaxation of ions (Broydens 2nd method)
  g(Force)  = 0.839E-05   g(Stress)= 0.000E+00

 retain information from N=  1 steps
 eigenvalues of (default step * inverse Hessian matrix)
  average eigenvalue of G=   2.0797
 eigenvalue spectrum of G is  2.0797


--------------------------------------------------------------------------------------------------------


  
 reached required accuracy - stopping structural energy minimisation
     LOOP+:  cpu time    4.1485: real time    4.1592
    4ORBIT:  cpu time    0.0001: real time    0.0232
 


 total charge     
 
# of ion       s       p       d       tot
------------------------------------------
    1        1.482   2.318   0.050   3.849
    2        1.482   2.318   0.050   3.849
    3        0.434   0.686   3.511   4.632
--------------------------------------------------
tot          3.398   5.321   3.611  12.330
 


 magnetization (x)
 
# of ion       s       p       d       tot
------------------------------------------
    1       -0.002  -0.039   0.003  -0.037
    2       -0.002  -0.039   0.003  -0.037
    3        0.008   0.008   0.634   0.650
--------------------------------------------------
tot          0.005  -0.070   0.641   0.576
 

 total amount of memory used by VASP MPI-rank0    34370. kBytes
=======================================================================

   base      :      30000. kBytes
   nonlr-proj:        213. kBytes
   fftplans  :        388. kBytes
   grid      :        926. kBytes
   one-center:         31. kBytes
   wavefun   :       2812. kBytes
 
  
  
 General timing and accounting informations for this job:
 ========================================================
  
                  Total CPU time used (sec):       41.072
                            User time (sec):       40.193
                          System time (sec):        0.879
                         Elapsed time (sec):       44.140
  
                   Maximum memory used (kb):      151196.
                   Average memory used (kb):           0.
  
                          Minor page faults:        29541
                          Major page faults:           27
                 Voluntary context switches:         2345
