PROCAR lm decomposed
# of k-points:   81         # of bands:   28         # of ions:    3

 k-point     1 :    0.00000000 0.00000000 0.00000000     weight = 0.01234568

band     1 # energy  -16.82688427 # occ.  1.00000000
 
ion      s     py     pz     px    dxy    dyz    dz2    dxz  x2-y2    tot
    1  0.306  0.000  0.003  0.000  0.000  0.000  0.000  0.000  0.000  0.309
    2  0.306  0.000  0.003  0.000  0.000  0.000  0.000  0.000  0.000  0.310
    3  0.112  0.000  0.000  0.000  0.000  0.000  0.000  0.000  0.000  0.112
tot    0.724  0.000  0.007  0.000  0.000  0.000  0.000  0.000  0.000  0.731
    1  0.013  0.000  0.000 -0.000 -0.000 -0.000  0.000  0.000  0.000  0.014
    2  0.013  0.000  0.000 -0.000 -0.000 -0.000  0.000  0.000  0.000  0.014
    3  0.005  0.000 -0.000  0.000  0.000  0.000  0.000 -0.000 -0.000  0.005
tot    0.032  0.000  0.000 -0.000  0.000  0.000  0.000 -0.000 -0.000  0.032
    1 -0.002  0.000 -0.000 -0.000  0.000 -0.000 -0.000  0.000  0.000 -0.002
    2 -0.002  0.000 -0.000 -0.000  0.000 -0.000 -0.000  0.000  0.000 -0.002
    3 -0.001 -0.000 -0.000  0.000 -0.000 -0.000 -0.000 -0.000 -0.000 -0.001
tot   -0.006  0.000 -0.000 -0.000 -0.000 -0.000 -0.000 -0.000 -0.000 -0.006
    1 -0.306  0.000 -0.003  0.000  0.000  0.000 -0.000  0.000  0.000 -0.309
    2 -0.306  0.000 -0.003  0.000  0.000  0.000 -0.000  0.000  0.000 -0.309
    3 -0.112  0.000 -0.000  0.000  0.000  0.000 -0.000  0.000  0.000 -0.112
tot   -0.723  0.000 -0.007  0.000  0.000  0.000 -0.000  0.000  0.000 -0.730
 
band     2 # energy  -16.81850590 # occ.  1.00000000
 
ion      s     py     pz     px    dxy    dyz    dz2    dxz  x2-y2    tot
    1  0.304  0.000  0.003  0.000  0.000  0.000  0.000  0.000  0.000  0.307
    2  0.304  0.000  0.003  0.000  0.000  0.000  0.000  0.000  0.000  0.308
    3  0.115  0.000  0.000  0.000  0.000  0.000  0.000  0.000  0.000  0.115
tot    0.723  0.000  0.007  0.000  0.000  0.000  0.000  0.000  0.000  0.730
    1 -0.013 -0.000 -0.000  0.000  0.000  0.000 -0.000 -0.000  0.000 -0.014
    2 -0.013 -0.000 -0.000  0.000  0.000  0.000 -0.000 -0.000  0.000 -0.014
    3 -0.005 -0.000 -0.000 -0.000 -0.000 -0.000 -0.000  0.000  0.000 -0.005
tot   -0.032 -0.000 -0.000  0.000 -0.000 -0.000 -0.000  0.000  0.000 -0.032
    1  0.002 -0.000  0.000  0.000 -0.000  0.000  0.000 -0.000 -0.000  0.002
    2  0.002 -0.000  0.000  0.000 -0.000  0.000  0.000 -0.000 -0.000  0.002
    3  0.001  0.000 -0.000 -0.000 -0.000 -0.000  0.000 -0.000  0.000  0.001
tot    0.006 -0.000  0.000  0.000 -0.000 -0.000  0.000 -0.000  0.000  0.006
    1  0.303 -0.000  0.003 -0.000 -0.000 -0.000  0.000 -0.000 -0.000  0.307
    2  0.304 -0.000  0.003 -0.000 -0.000 -0.000  0.000 -0.000 -0.000  0.307
    3  0.115 -0.000  0.000 -0.000 -0.000 -0.000  0.000 -0.000 -0.000  0.115
tot    0.722 -0.000  0.007 -0.000 -0.000 -0.000  0.000 -0.000 -0.000  0.729
 
band     3 # energy  -15.92024461 # occ.  1.00000000
 
ion      s     py     pz     px    dxy    dyz    dz2    dxz  x2-y2    tot
    1  0.342  0.000  0.000  0.000  0.000  0.000  0.000  0.000  0.000  0.342
    2  0.341  0.000  0.000  0.000  0.000  0.000  0.000  0.000  0.000  0.342
    3  0.000  0.000  0.057  0.000  0.000  0.000  0.000  0.000  0.000  0.057
tot    0.683  0.000  0.058  0.000  0.000  0.000  0.001  0.000  0.000  0.741
    1  0.005  0.000  0.000 -0.000  0.000 -0.000  0.000  0.000 -0.000  0.005
    2  0.005  0.000  0.000 -0.000  0.000 -0.000  0.000  0.000 -0.000  0.005
    3  0.000  0.000  0.001 -0.000  0.000  0.000  0.000  0.000 -0.000  0.001
tot    0.010  0.000  0.001 -0.000  0.000 -0.000  0.000  0.000 -0.000  0.010
    1 -0.001 -0.000 -0.000 -0.000  0.000 -0.000 -0.000  0.000 -0.000 -0.001
    2 -0.001  0.000 -0.000 -0.000 -0.000 -0.000 -0.000  0.000 -0.000 -0.001
    3  0.000  0.000 -0.000 -0.000 -0.000 -0.000 -0.000 -0.000 -0.000 -0.000
tot   -0.003  0.000 -0.000 -0.000 -0.000 -0.000 -0.000  0.000 -0.000 -0.003
    1 -0.342  0.000 -0.000  0.000  0.000  0.000 -0.000  0.000  0.000 -0.342
    2 -0.341  0.000 -0.000  0.000  0.000  0.000 -0.000  0.000  0.000 -0.342
    3 -0.000  0.000 -0.057  0.000  0.000  0.000 -0.000  0.000  0.000 -0.057
tot   -0.683  0.000 -0.058  0.000  0.000  0.000 -0.001  0.000  0.000 -0.741
 
band     4 # energy  -15.88876587 # occ.  1.00000000
 
ion      s     py     pz     px    dxy    dyz    dz2    dxz  x2-y2    tot
    1  0.341  0.000  0.000  0.000  0.000  0.000  0.000  0.000  0.000  0.341
    2  0.340  0.000  0.000  0.000  0.000  0.000  0.000  0.000  0.000  0.341
    3  0.000  0.000  0.058  0.000  0.000  0.000  0.000  0.000  0.000  0.058
tot    0.681  0.000  0.059  0.000  0.000  0.000  0.000  0.000  0.000  0.740
    1 -0.005 -0.000 -0.000  0.000 -0.000  0.000 -0.000 -0.000  0.000 -0.005
    2 -0.005 -0.000 -0.000  0.000 -0.000  0.000 -0.000 -0.000  0.000 -0.005
    3 -0.000 -0.000 -0.001  0.000 -0.000 -0.000  0.000 -0.000 -0.000 -0.001
tot   -0.010 -0.000 -0.001  0.000 -0.000  0.000 -0.000 -0.000  0.000 -0.010
    1  0.001 -0.000  0.000  0.000 -0.000  0.000  0.000 -0.000  0.000  0.001
    2  0.001 -0.000  0.000  0.000 -0.000  0.000  0.000 -0.000  0.000  0.001
    3 -0.000 -0.000  0.000  0.000  0.000  0.000 -0.000  0.000  0.000  0.000
tot    0.003 -0.000  0.000  0.000 -0.000  0.000  0.000 -0.000  0.000  0.003
    1  0.341 -0.000  0.000 -0.000 -0.000 -0.000  0.000 -0.000 -0.000  0.341
    2  0.340 -0.000  0.000 -0.000 -0.000 -0.000  0.000 -0.000 -0.000  0.341
    3  0.000 -0.000  0.058 -0.000 -0.000 -0.000  0.000 -0.000 -0.000  0.058
tot    0.681 -0.000  0.059 -0.000 -0.000 -0.000  0.000 -0.000 -0.000  0.740
 
band     5 # energy   -7.68243340 # occ.  1.00000000
 
ion      s     py     pz     px    dxy    dyz    dz2    dxz  x2-y2    tot
    1  0.018  0.000  0.150  0.000  0.000  0.000  0.002  0.000  0.000  0.170
    2  0.018  0.000  0.150  0.000  0.000  0.000  0.002  0.000  0.000  0.170
    3  0.148  0.000  0.000  0.000  0.000  0.000  0.117  0.000  0.000  0.265
tot    0.183  0.000  0.300  0.000  0.000  0.000  0.122  0.000  0.000  0.605
    1 -0.000  0.000  0.000 -0.000  0.000  0.000  0.000 -0.000  0.000  0.000
    2  0.000  0.000  0.000 -0.000  0.000  0.000 -0.000 -0.000  0.000  0.000
    3  0.000  0.000  0.000  0.000  0.000  0.000  0.000 -0.000 -0.000  0.000
tot    0.000  0.000  0.000 -0.000  0.000  0.000  0.000 -0.000 -0.000  0.000
    1  0.000  0.000  0.000 -0.000 -0.000 -0.000  0.000 -0.000 -0.000  0.000
    2  0.000  0.000 -0.000 -0.000 -0.000  0.000 -0.000 -0.000 -0.000 -0.000
    3 -0.000 -0.000  0.000  0.000  0.000 -0.000 -0.000 -0.000 -0.000 -0.000
tot   -0.000  0.000 -0.000 -0.000  0.000 -0.000 -0.000 -0.000 -0.000 -0.000
    1  0.018 -0.000  0.150 -0.000 -0.000 -0.000  0.002 -0.000 -0.000  0.170
    2  0.018 -0.000  0.150 -0.000 -0.000 -0.000  0.002 -0.000 -0.000  0.170
    3  0.148 -0.000  0.000 -0.000 -0.000 -0.000  0.117 -0.000 -0.000  0.264
tot    0.183 -0.000  0.300 -0.000 -0.000 -0.000  0.122 -0.000 -0.000  0.604
 
band     6 # energy   -7.57575184 # occ.  1.00000000
 
ion      s     py     pz     px    dxy    dyz    dz2    dxz  x2-y2    tot
    1  0.017  0.000  0.156  0.000  0.000  0.000  0.002  0.000  0.000  0.176
    2  0.017  0.000  0.156  0.000  0.000  0.000  0.002  0.000  0.000  0.176
    3  0.148  0.000  0.000  0.000  0.000  0.000  0.099  0.000  0.000  0.248
tot    0.182  0.000  0.312  0.000  0.000  0.000  0.104  0.000  0.000  0.599
    1 -0.000 -0.000 -0.000 -0.000 -0.000 -0.000  0.000  0.000  0.000 -0.000
    2 -0.000 -0.000 -0.000  0.000  0.000 -0.000 -0.000  0.000  0.000 -0.000
    3 -0.000 -0.000  0.000 -0.000 -0.000  0.000 -0.000  0.000  0.000 -0.000
tot   -0.000 -0.000 -0.000 -0.000 -0.000  0.000 -0.000  0.000  0.000 -0.000
    1  0.000  0.000  0.000  0.000 -0.000 -0.000  0.000  0.000  0.000  0.000
    2  0.000  0.000 -0.000 -0.000 -0.000  0.000 -0.000  0.000 -0.000  0.000
    3  0.000  0.000  0.000 -0.000  0.000 -0.000  0.000  0.000  0.000  0.000
tot    0.000  0.000  0.000 -0.000  0.000 -0.000  0.000  0.000  0.000  0.000
    1 -0.017  0.000 -0.156  0.000  0.000  0.000 -0.002  0.000  0.000 -0.175
    2 -0.017  0.000 -0.156  0.000  0.000  0.000 -0.002  0.000  0.000 -0.175
    3 -0.148  0.000 -0.000  0.000  0.000  0.000 -0.099  0.000  0.000 -0.247
tot   -0.182  0.000 -0.312  0.000  0.000  0.000 -0.104  0.000  0.000 -0.597
 
band     7 # energy   -4.70931071 # occ.  1.00000000
 
ion      s     py     pz     px    dxy    dyz    dz2    dxz  x2-y2    tot
    1  0.000  0.063  0.000  0.063  0.000  0.003  0.000  0.003  0.000  0.133
    2  0.000  0.064  0.000  0.064  0.000  0.003  0.000  0.003  0.000  0.134
    3  0.000  0.000  0.000  0.000  0.223  0.081  0.001  0.081  0.223  0.608
tot    0.000  0.127  0.000  0.127  0.223  0.087  0.001  0.087  0.223  0.876
    1 -0.000  0.000  0.000 -0.000  0.000  0.000  0.000 -0.000  0.000  0.000
    2  0.000  0.000 -0.000 -0.000  0.000  0.000  0.000 -0.000 -0.000  0.000
    3  0.000 -0.000  0.000 -0.000  0.000  0.000  0.000 -0.000 -0.000  0.000
tot    0.000  0.000  0.000 -0.000  0.000  0.000  0.000 -0.000 -0.000  0.000
    1 -0.000 -0.000  0.000 -0.000  0.000 -0.000 -0.000 -0.000 -0.000 -0.000
    2  0.000 -0.000 -0.000 -0.000 -0.000 -0.000 -0.000 -0.000 -0.000 -0.000
    3 -0.000 -0.000 -0.000 -0.000 -0.000 -0.000 -0.000 -0.000 -0.000 -0.000
tot   -0.000 -0.000 -0.000 -0.000 -0.000 -0.000 -0.000 -0.000 -0.000 -0.000
    1 -0.000  0.063 -0.000  0.063  0.000  0.003 -0.000  0.003  0.000  0.133
    2 -0.000  0.064 -0.000  0.064  0.000  0.003 -0.000  0.003  0.000  0.134
    3 -0.000  0.000 -0.000  0.000  0.223  0.081 -0.001  0.081  0.223  0.607
tot   -0.000  0.127 -0.000  0.127  0.223  0.087 -0.001  0.087  0.223  0.874
 
band     8 # energy   -4.61510581 # occ.  1.00000000
 
ion      s     py     pz     px    dxy    dyz    dz2    dxz  x2-y2    tot
    1  0.000  0.058  0.000  0.058  0.000  0.003  0.000  0.003  0.000  0.122
    2  0.000  0.058  0.000  0.058  0.000  0.003  0.000  0.003  0.000  0.122
    3  0.000  0.000  0.000  0.000  0.240  0.078  0.000  0.078  0.240  0.636
tot    0.000  0.115  0.000  0.115  0.240  0.084  0.000  0.084  0.241  0.881
    1 -0.000 -0.000  0.000  0.000 -0.000 -0.000 -0.000  0.000  0.000  0.000
    2  0.000 -0.000  0.000  0.000 -0.000 -0.000 -0.000  0.000  0.000  0.000
    3 -0.000 -0.000  0.000 -0.000  0.002 -0.002 -0.000  0.002 -0.002  0.000
tot   -0.000 -0.000  0.000  0.000  0.002 -0.002 -0.000  0.002 -0.002  0.000
    1  0.000 -0.000 -0.000 -0.000 -0.000 -0.000  0.000 -0.000 -0.000 -0.000
    2 -0.000 -0.000  0.000 -0.000 -0.000 -0.000  0.000 -0.000 -0.000 -0.000
    3 -0.000 -0.000 -0.000 -0.000 -0.000 -0.000  0.000 -0.000 -0.000 -0.000
tot   -0.000 -0.000 -0.000 -0.000 -0.000 -0.000  0.000 -0.000 -0.000 -0.001
    1 -0.000  0.058 -0.000  0.058  0.000  0.003 -0.000  0.003  0.000  0.122
    2 -0.000  0.058 -0.000  0.058  0.000  0.003 -0.000  0.003  0.000  0.122
    3 -0.000  0.000 -0.000  0.000  0.240  0.078  0.000  0.078  0.240  0.636
tot   -0.000  0.115 -0.000  0.115  0.240  0.084  0.000  0.084  0.241  0.880
 
band     9 # energy   -4.50161171 # occ.  1.00000000
 
ion      s     py     pz     px    dxy    dyz    dz2    dxz  x2-y2    tot
    1  0.000  0.071  0.000  0.071  0.000  0.003  0.000  0.003  0.000  0.149
    2  0.000  0.071  0.000  0.071  0.000  0.003  0.000  0.003  0.000  0.149
    3  0.000  0.000  0.000  0.000  0.198  0.087  0.001  0.087  0.198  0.572
tot    0.000  0.142  0.000  0.142  0.199  0.093  0.001  0.093  0.199  0.870
    1 -0.000 -0.000  0.000  0.000  0.000 -0.000  0.000 -0.000  0.000 -0.000
    2  0.000 -0.000 -0.000 -0.000 -0.000 -0.000  0.000 -0.000 -0.000 -0.000
    3 -0.000 -0.000 -0.000 -0.000 -0.000 -0.000  0.000 -0.000 -0.000 -0.000
tot   -0.000 -0.000 -0.000 -0.000 -0.000 -0.000  0.000 -0.000 -0.000 -0.000
    1 -0.000  0.000  0.000  0.000  0.000  0.000 -0.000  0.000  0.000  0.000
    2  0.000  0.000 -0.000  0.000  0.000  0.000 -0.000  0.000  0.000  0.000
    3  0.000 -0.000  0.000  0.000  0.000  0.000 -0.000  0.000  0.000  0.000
tot    0.000  0.000  0.000  0.000  0.000  0.000 -0.000  0.000  0.000  0.001
    1  0.000 -0.071  0.000 -0.071 -0.000 -0.003  0.000 -0.003 -0.000 -0.149
    2  0.000 -0.071  0.000 -0.071 -0.000 -0.003  0.000 -0.003 -0.000 -0.149
    3  0.000 -0.000  0.000 -0.000 -0.198 -0.087  0.001 -0.087 -0.198 -0.569
tot    0.000 -0.142  0.000 -0.142 -0.199 -0.093  0.001 -0.093 -0.199 -0.867
 
band    10 # energy   -4.46324898 # occ.  1.00000000
 
ion      s     py     pz     px    dxy    dyz    dz2    dxz  x2-y2    tot
    1  0.001  0.001  0.247  0.001  0.000  0.000  0.000  0.000  0.000  0.250
    2  0.001  0.001  0.247  0.001  0.000  0.000  0.000  0.000  0.000  0.249
    3  0.000  0.000  0.059  0.000  0.000  0.000  0.000  0.000  0.000  0.059
tot    0.001  0.002  0.553  0.002  0.000  0.000  0.000  0.000  0.000  0.558
    1 -0.000 -0.001 -0.195  0.001 -0.000 -0.000 -0.000  0.000  0.000 -0.196
    2 -0.000 -0.001 -0.195  0.001 -0.000 -0.000 -0.000  0.000  0.000 -0.195
    3 -0.000 -0.000 -0.047  0.000 -0.000 -0.000 -0.000  0.000  0.000 -0.047
tot   -0.001 -0.001 -0.437  0.001 -0.000 -0.000 -0.000  0.000  0.000 -0.438
    1  0.000 -0.000  0.010  0.000 -0.000 -0.000  0.000  0.000  0.000  0.010
    2  0.000 -0.000  0.010  0.000 -0.000  0.000  0.000 -0.000 -0.000  0.010
    3 -0.000 -0.000  0.002  0.000 -0.000 -0.000  0.000  0.000  0.000  0.002
tot    0.000 -0.000  0.022  0.000 -0.000 -0.000  0.000  0.000  0.000  0.022
    1 -0.000  0.001 -0.151  0.001  0.000  0.000  0.000  0.000  0.000 -0.151
    2 -0.000  0.001 -0.151  0.001  0.000  0.000  0.000  0.000  0.000 -0.151
    3  0.000  0.000 -0.035  0.000 -0.000 -0.000 -0.000 -0.000 -0.000 -0.035
tot   -0.001  0.001 -0.338  0.001  0.000  0.000  0.000  0.000  0.000 -0.336
 
band    11 # energy   -4.46313513 # occ.  1.00000000
 
ion      s     py     pz     px    dxy    dyz    dz2    dxz  x2-y2    tot
    1  0.001  0.001  0.247  0.001  0.000  0.000  0.000  0.000  0.000  0.249
    2  0.001  0.001  0.246  0.001  0.000  0.000  0.000  0.000  0.000  0.249
    3  0.000  0.000  0.060  0.000  0.000  0.000  0.000  0.000  0.000  0.060
tot    0.001  0.002  0.553  0.002  0.000  0.000  0.000  0.000  0.000  0.558
    1  0.000  0.001  0.195 -0.001  0.000  0.000  0.000 -0.000 -0.000  0.196
    2  0.000  0.001  0.195 -0.001  0.000  0.000  0.000 -0.000 -0.000  0.196
    3  0.000  0.000  0.047 -0.000  0.000  0.000  0.000 -0.000 -0.000  0.047
tot    0.001  0.001  0.437 -0.001  0.000  0.000  0.000 -0.000 -0.000  0.438
    1 -0.000  0.000 -0.010 -0.000  0.000  0.000 -0.000 -0.000 -0.000 -0.010
    2 -0.000  0.000 -0.010 -0.000  0.000 -0.000 -0.000  0.000 -0.000 -0.010
    3 -0.000  0.000 -0.002 -0.000  0.000  0.000 -0.000 -0.000 -0.000 -0.002
tot   -0.000  0.000 -0.022 -0.000  0.000  0.000 -0.000 -0.000 -0.000 -0.022
    1  0.000 -0.001  0.150 -0.001 -0.000 -0.000  0.000 -0.000 -0.000  0.150
    2  0.000 -0.001  0.150 -0.001 -0.000 -0.000  0.000 -0.000 -0.000  0.149
    3  0.000 -0.000  0.037 -0.000 -0.000 -0.000  0.000 -0.000 -0.000  0.037
tot    0.001 -0.001  0.338 -0.001 -0.000 -0.000  0.000 -0.000 -0.000  0.336
 
band    12 # energy   -4.38863778 # occ.  1.00000000
 
ion      s     py     pz     px    dxy    dyz    dz2    dxz  x2-y2    tot
    1  0.000  0.065  0.000  0.065  0.000  0.003  0.000  0.003  0.000  0.137
    2  0.000  0.065  0.000  0.065  0.000  0.003  0.000  0.003  0.000  0.138
    3  0.000  0.000  0.000  0.000  0.214  0.086  0.000  0.086  0.214  0.601
tot    0.000  0.130  0.000  0.130  0.215  0.093  0.000  0.093  0.215  0.875
    1 -0.000  0.000 -0.000 -0.000  0.000  0.000 -0.000 -0.000 -0.000 -0.000
    2 -0.000  0.000 -0.000 -0.000  0.000  0.000 -0.000 -0.000 -0.000 -0.000
    3 -0.000 -0.000 -0.000 -0.000 -0.003  0.004 -0.000 -0.004  0.003 -0.000
tot   -0.000  0.001 -0.000 -0.001 -0.003  0.004 -0.000 -0.004  0.003 -0.000
    1 -0.000 -0.000  0.000  0.000 -0.000 -0.000  0.000  0.000  0.000  0.000
    2  0.000 -0.000  0.000  0.000 -0.000 -0.000  0.000  0.000 -0.000  0.000
    3 -0.000  0.000  0.000 -0.000 -0.000 -0.000  0.000  0.000  0.000  0.000
tot   -0.000 -0.000  0.000  0.000 -0.000 -0.000  0.000  0.000  0.000  0.000
    1  0.000 -0.065  0.000 -0.065 -0.000 -0.003  0.000 -0.003 -0.000 -0.137
    2  0.000 -0.065  0.000 -0.065 -0.000 -0.003  0.000 -0.003 -0.000 -0.138
    3  0.000 -0.000  0.000 -0.000 -0.214 -0.086  0.000 -0.086 -0.214 -0.600
tot    0.000 -0.130  0.000 -0.130 -0.215 -0.093  0.000 -0.092 -0.215 -0.875
 
band    13 # energy   -2.71341132 # occ.  1.00000000
 
ion      s     py     pz     px    dxy    dyz    dz2    dxz  x2-y2    tot
    1  0.000  0.002  0.000  0.002  0.004  0.000  0.000  0.000  0.004  0.012
    2  0.000  0.002  0.000  0.002  0.004  0.000  0.000  0.000  0.004  0.012
    3  0.000  0.000  0.000  0.000  0.137  0.315  0.002  0.314  0.137  0.905
tot    0.000  0.005  0.000  0.005  0.145  0.315  0.002  0.314  0.145  0.929
    1  0.000  0.000  0.000  0.000  0.000  0.000  0.000  0.000  0.000  0.000
    2  0.000 -0.000  0.000 -0.000  0.000  0.000  0.000  0.000  0.000 -0.000
    3  0.000 -0.000 -0.000 -0.000  0.000  0.000  0.000  0.000  0.000  0.000
tot    0.000 -0.000  0.000 -0.000  0.000  0.000  0.000  0.000  0.000  0.000
    1 -0.000  0.000 -0.000  0.000 -0.000 -0.000 -0.000 -0.000 -0.000 -0.000
    2 -0.000 -0.000 -0.000  0.000 -0.000 -0.000 -0.000 -0.000 -0.000 -0.000
    3 -0.000 -0.000 -0.000  0.000 -0.000 -0.000 -0.000 -0.000 -0.000 -0.000
tot   -0.000 -0.000 -0.000  0.000 -0.000 -0.000 -0.000 -0.000 -0.000 -0.000
    1 -0.000  0.002 -0.000  0.002  0.004  0.000 -0.000  0.000  0.004  0.012
    2 -0.000  0.002 -0.000  0.002  0.004  0.000 -0.000  0.000  0.004  0.012
    3 -0.000  0.000 -0.000  0.000  0.137  0.315 -0.002  0.314  0.137  0.902
tot   -0.000  0.005 -0.000  0.005  0.145  0.315 -0.002  0.314  0.145  0.926
 
band    14 # energy   -2.70620448 # occ.  1.00000000
 
ion      s     py     pz     px    dxy    dyz    dz2    dxz  x2-y2    tot
    1  0.000  0.003  0.000  0.003  0.004  0.000  0.000  0.000  0.004  0.013
    2  0.000  0.003  0.000  0.003  0.004  0.000  0.000  0.000  0.004  0.013
    3  0.000  0.000  0.000  0.000  0.128  0.324  0.000  0.324  0.128  0.904
tot    0.000  0.006  0.000  0.006  0.136  0.324  0.000  0.324  0.136  0.931
    1  0.000 -0.000 -0.000  0.000 -0.000  0.000 -0.000 -0.000  0.000  0.000
    2  0.000 -0.000 -0.000  0.000 -0.000  0.000  0.000 -0.000  0.000 -0.000
    3  0.000 -0.000 -0.000 -0.000  0.002 -0.002  0.000  0.002 -0.002  0.000
tot    0.000 -0.001 -0.000  0.001  0.002 -0.002  0.000  0.002 -0.002  0.000
    1  0.000 -0.000  0.000  0.000 -0.000  0.000  0.000  0.000 -0.000 -0.000
    2  0.000 -0.000 -0.000 -0.000 -0.000  0.000  0.000  0.000 -0.000 -0.000
    3  0.000  0.000 -0.000 -0.000 -0.000 -0.000  0.000 -0.000 -0.000 -0.000
tot    0.000 -0.000  0.000 -0.000 -0.000 -0.000  0.000 -0.000 -0.000 -0.000
    1 -0.000  0.003 -0.000  0.003  0.004 -0.000  0.000 -0.000  0.004  0.013
    2 -0.000  0.003  0.000  0.003  0.004 -0.000  0.000 -0.000  0.004  0.013
    3  0.000  0.000 -0.000  0.000  0.128  0.324  0.000  0.324  0.128  0.904
tot   -0.000  0.005  0.000  0.006  0.136  0.324  0.000  0.324  0.136  0.930
 
band    15 # energy   -2.62037764 # occ.  1.00000000
 
ion      s     py     pz     px    dxy    dyz    dz2    dxz  x2-y2    tot
    1  0.002  0.000  0.034  0.000  0.000  0.000  0.007  0.000  0.000  0.043
    2  0.002  0.000  0.034  0.000  0.000  0.000  0.007  0.000  0.000  0.043
    3  0.016  0.000  0.000  0.000  0.002  0.000  0.736  0.000  0.002  0.756
tot    0.019  0.000  0.068  0.000  0.002  0.000  0.750  0.000  0.002  0.842
    1  0.000 -0.000  0.000  0.000 -0.000  0.000  0.000 -0.000  0.000  0.000
    2  0.000  0.000 -0.000 -0.000 -0.000  0.000  0.000 -0.000  0.000  0.000
    3  0.000 -0.000 -0.000  0.000 -0.000 -0.000  0.000  0.000 -0.000  0.000
tot    0.000  0.000  0.000 -0.000 -0.000 -0.000  0.000  0.000 -0.000  0.000
    1 -0.000  0.000 -0.000 -0.000 -0.000  0.000 -0.000 -0.000  0.000 -0.000
    2 -0.000  0.000 -0.000 -0.000 -0.000  0.000 -0.000 -0.000  0.000 -0.000
    3 -0.000  0.000 -0.000 -0.000 -0.000 -0.000 -0.000  0.000  0.000 -0.000
tot   -0.000  0.000 -0.000 -0.000 -0.000 -0.000 -0.000  0.000  0.000 -0.000
    1  0.002 -0.000  0.034 -0.000 -0.000 -0.000  0.007 -0.000 -0.000  0.043
    2  0.002 -0.000  0.034 -0.000 -0.000 -0.000  0.007 -0.000 -0.000  0.043
    3  0.016 -0.000  0.000 -0.000 -0.002 -0.000  0.736 -0.000 -0.002  0.748
tot    0.019 -0.000  0.068 -0.000 -0.002 -0.000  0.750 -0.000 -0.002  0.834
 
band    16 # energy   -2.10691238 # occ.  0.00001319
 
ion      s     py     pz     px    dxy    dyz    dz2    dxz  x2-y2    tot
    1  0.000  0.001  0.000  0.001  0.004  0.000  0.000  0.000  0.004  0.012
    2  0.000  0.001  0.000  0.001  0.004  0.000  0.000  0.000  0.004  0.012
    3  0.000  0.000  0.000  0.000  0.144  0.298  0.002  0.306  0.148  0.899
tot    0.000  0.003  0.000  0.003  0.153  0.298  0.002  0.306  0.157  0.923
    1  0.000  0.000  0.000 -0.000 -0.000  0.000  0.000  0.000 -0.000  0.000
    2  0.000 -0.000  0.000 -0.000 -0.000  0.000  0.000  0.000 -0.000 -0.000
    3  0.000 -0.000 -0.000 -0.000 -0.000 -0.000  0.000 -0.000 -0.000 -0.000
tot    0.000 -0.000  0.000 -0.000 -0.000 -0.000  0.000 -0.000 -0.000 -0.000
    1 -0.000  0.000 -0.000  0.000  0.000 -0.000 -0.000 -0.000  0.000  0.000
    2 -0.000  0.000 -0.000  0.000  0.000 -0.000 -0.000 -0.000  0.000  0.000
    3 -0.000 -0.000  0.000  0.000  0.000  0.000 -0.000  0.000  0.000  0.000
tot   -0.000  0.000 -0.000  0.000  0.000  0.000 -0.000  0.000  0.000  0.000
    1  0.000 -0.001  0.000 -0.001 -0.004 -0.000  0.000 -0.000 -0.004 -0.011
    2  0.000 -0.001  0.000 -0.001 -0.004 -0.000  0.000 -0.000 -0.004 -0.011
    3  0.000  0.000  0.000  0.000 -0.144 -0.298  0.002 -0.306 -0.148 -0.895
tot    0.000 -0.003  0.000 -0.003 -0.153 -0.298  0.002 -0.306 -0.157 -0.917
 
band    17 # energy   -2.10652022 # occ.  0.00001256
 
ion      s     py     pz     px    dxy    dyz    dz2    dxz  x2-y2    tot
    1  0.000  0.002  0.000  0.002  0.004  0.000  0.000  0.000  0.004  0.012
    2  0.000  0.002  0.000  0.002  0.004  0.000  0.000  0.000  0.004  0.012
    3  0.000  0.000  0.000  0.000  0.143  0.313  0.000  0.305  0.139  0.899
tot    0.000  0.004  0.000  0.004  0.152  0.313  0.000  0.305  0.148  0.924
    1 -0.000  0.000 -0.000 -0.000  0.000 -0.000 -0.000  0.000 -0.000  0.000
    2 -0.000  0.000 -0.000 -0.000  0.000 -0.000 -0.000  0.000 -0.000 -0.000
    3 -0.000 -0.000  0.000 -0.000 -0.001  0.001 -0.000 -0.001  0.001 -0.000
tot   -0.000  0.001 -0.000 -0.001 -0.001  0.001 -0.000 -0.001  0.001 -0.000
    1  0.000 -0.000  0.000 -0.000  0.000  0.000  0.000  0.000  0.000 -0.000
    2  0.000 -0.000  0.000 -0.000  0.000  0.000  0.000  0.000  0.000 -0.000
    3  0.000  0.000  0.000 -0.000  0.000  0.000  0.000  0.000  0.000  0.000
tot    0.000 -0.000  0.000 -0.000  0.000  0.000  0.000  0.000  0.000  0.000
    1  0.000 -0.002  0.000 -0.002 -0.004 -0.000  0.000 -0.000 -0.004 -0.012
    2  0.000 -0.002  0.000 -0.002 -0.004 -0.000  0.000 -0.000 -0.004 -0.012
    3  0.000 -0.000 -0.000  0.000 -0.143 -0.313  0.000 -0.305 -0.139 -0.899
tot    0.000 -0.004  0.000 -0.004 -0.152 -0.313  0.000 -0.305 -0.148 -0.924
 
band    18 # energy   -2.03822092 # occ.  0.00000000
 
ion      s     py     pz     px    dxy    dyz    dz2    dxz  x2-y2    tot
    1  0.001  0.000  0.030  0.000  0.000  0.000  0.009  0.000  0.000  0.040
    2  0.001  0.000  0.031  0.000  0.000  0.000  0.009  0.000  0.000  0.041
    3  0.011  0.000  0.000  0.000  0.000  0.001  0.734  0.001  0.000  0.747
tot    0.013  0.000  0.061  0.000  0.000  0.001  0.751  0.001  0.000  0.828
    1  0.000 -0.000  0.000  0.000 -0.000 -0.000 -0.000  0.000  0.000  0.000
    2  0.000  0.000 -0.000 -0.000 -0.000  0.000 -0.000 -0.000  0.000 -0.000
    3 -0.000  0.000 -0.000  0.000 -0.000 -0.000 -0.000  0.000  0.000 -0.000
tot   -0.000 -0.000 -0.000  0.000 -0.000 -0.000 -0.000  0.000  0.000 -0.000
    1  0.000 -0.000  0.000  0.000 -0.000  0.000  0.000 -0.000  0.000  0.000
    2 -0.000  0.000  0.000  0.000 -0.000  0.000  0.000  0.000  0.000  0.000
    3  0.000 -0.000 -0.000  0.000 -0.000 -0.000  0.000  0.000  0.000  0.000
tot    0.000 -0.000  0.000  0.000 -0.000 -0.000  0.000  0.000  0.000  0.000
    1 -0.001  0.000 -0.030  0.000  0.000  0.000 -0.009  0.000  0.000 -0.040
    2 -0.001  0.000 -0.031  0.000  0.000  0.000 -0.009  0.000  0.000 -0.040
    3 -0.011  0.000 -0.000  0.000  0.000  0.001 -0.734  0.001  0.000 -0.742
tot   -0.013  0.000 -0.061  0.000  0.000  0.001 -0.751  0.001  0.000 -0.823
 
band    19 # energy   -1.54376993 # occ.  0.00000000
 
ion      s     py     pz     px    dxy    dyz    dz2    dxz  x2-y2    tot
    1  0.000  0.176  0.001  0.176  0.000  0.000  0.000  0.000  0.000  0.353
    2  0.000  0.175  0.001  0.175  0.000  0.000  0.000  0.000  0.000  0.353
    3  0.000  0.018  0.000  0.018  0.000  0.000  0.000  0.000  0.000  0.035
tot    0.000  0.369  0.002  0.369  0.000  0.001  0.000  0.001  0.000  0.741
    1  0.000  0.001  0.000 -0.000  0.000  0.000  0.000 -0.000 -0.000  0.000
    2  0.000  0.001  0.000 -0.000  0.000  0.000  0.000 -0.000 -0.000  0.000
    3 -0.000  0.000  0.000 -0.000  0.000  0.000 -0.000  0.000  0.000  0.000
tot    0.000  0.001  0.000 -0.001  0.000  0.000  0.000 -0.000 -0.000  0.000
    1 -0.000  0.000 -0.000 -0.000  0.000  0.000 -0.000 -0.000 -0.000 -0.000
    2 -0.000  0.000 -0.000 -0.000  0.000  0.000 -0.000 -0.000 -0.000 -0.000
    3  0.000  0.000 -0.000 -0.000 -0.000  0.000  0.000  0.000 -0.000 -0.000
tot   -0.000  0.000 -0.000 -0.001  0.000  0.000 -0.000 -0.000 -0.000 -0.000
    1  0.000 -0.176  0.001 -0.176 -0.000 -0.000  0.000 -0.000 -0.000 -0.351
    2  0.000 -0.175  0.001 -0.175 -0.000 -0.000  0.000 -0.000 -0.000 -0.351
    3  0.000 -0.018  0.000 -0.018 -0.000 -0.000  0.000 -0.000 -0.000 -0.035
tot    0.000 -0.369  0.002 -0.369 -0.000 -0.001  0.000 -0.001 -0.000 -0.737
 
band    20 # energy   -1.49246434 # occ.  0.00000000
 
ion      s     py     pz     px    dxy    dyz    dz2    dxz  x2-y2    tot
    1  0.000  0.175  0.001  0.175  0.000  0.000  0.000  0.000  0.000  0.352
    2  0.000  0.175  0.001  0.175  0.000  0.000  0.000  0.000  0.000  0.352
    3  0.000  0.018  0.000  0.018  0.000  0.000  0.000  0.000  0.000  0.037
tot    0.000  0.369  0.002  0.368  0.000  0.001  0.000  0.001  0.000  0.741
    1 -0.000 -0.000 -0.000  0.001 -0.000 -0.000 -0.000  0.000  0.000  0.000
    2 -0.000 -0.000 -0.000  0.001  0.000 -0.000 -0.000  0.000  0.000  0.000
    3  0.000 -0.000 -0.000  0.000  0.000 -0.000  0.000 -0.000  0.000  0.000
tot   -0.000 -0.001 -0.000  0.001 -0.000 -0.000 -0.000  0.000  0.000  0.001
    1  0.000 -0.000  0.000  0.000 -0.000 -0.000  0.000  0.000  0.000 -0.000
    2  0.000 -0.000  0.000  0.000 -0.000 -0.000  0.000  0.000  0.000 -0.000
    3 -0.000 -0.000  0.000  0.000  0.000 -0.000 -0.000 -0.000 -0.000 -0.000
tot    0.000 -0.001  0.000  0.000 -0.000 -0.000  0.000  0.000  0.000 -0.000
    1 -0.000  0.175 -0.001  0.175  0.000  0.000 -0.000  0.000  0.000  0.351
    2 -0.000  0.175 -0.001  0.175  0.000  0.000 -0.000  0.000  0.000  0.350
    3 -0.000  0.018 -0.000  0.018  0.000 -0.000 -0.000 -0.000  0.000  0.036
tot   -0.000  0.369 -0.002  0.368  0.000  0.001 -0.000  0.001  0.000  0.737
 
band    21 # energy   -1.19441613 # occ.  0.00000000
 
ion      s     py     pz     px    dxy    dyz    dz2    dxz  x2-y2    tot
    1  0.000  0.176  0.000  0.176  0.000  0.000  0.000  0.000  0.000  0.353
    2  0.000  0.176  0.000  0.176  0.000  0.000  0.000  0.000  0.000  0.353
    3  0.000  0.018  0.000  0.018  0.000  0.000  0.000  0.000  0.000  0.036
tot    0.000  0.370  0.000  0.370  0.000  0.001  0.000  0.001  0.000  0.742
    1  0.000  0.005 -0.000 -0.005  0.000  0.000  0.000 -0.000 -0.000 -0.000
    2  0.000  0.005 -0.000 -0.005  0.000  0.000 -0.000 -0.000 -0.000 -0.000
    3  0.000  0.001 -0.000 -0.001  0.000  0.000  0.000  0.000  0.000 -0.000
tot    0.000  0.010 -0.000 -0.011  0.000  0.000  0.000 -0.000 -0.000 -0.001
    1  0.000  0.001  0.000 -0.001  0.000  0.000 -0.000 -0.000 -0.000  0.000
    2 -0.000  0.001  0.000 -0.001  0.000  0.000 -0.000 -0.000 -0.000  0.000
    3  0.000  0.000  0.000 -0.000 -0.000  0.000  0.000  0.000  0.000  0.000
tot    0.000  0.002  0.000 -0.001  0.000  0.000  0.000 -0.000 -0.000  0.000
    1  0.000 -0.176 -0.000 -0.176 -0.000 -0.000  0.000 -0.000 -0.000 -0.353
    2 -0.000 -0.176 -0.000 -0.176 -0.000 -0.000  0.000 -0.000 -0.000 -0.353
    3  0.000 -0.018 -0.000 -0.018 -0.000 -0.000  0.000  0.000 -0.000 -0.036
tot    0.000 -0.370 -0.000 -0.370 -0.000 -0.001  0.000 -0.001 -0.000 -0.742
 
band    22 # energy   -1.14285156 # occ.  0.00000000
 
ion      s     py     pz     px    dxy    dyz    dz2    dxz  x2-y2    tot
    1  0.000  0.176  0.000  0.176  0.000  0.000  0.000  0.000  0.000  0.352
    2  0.000  0.176  0.000  0.176  0.000  0.000  0.000  0.000  0.000  0.352
    3  0.000  0.019  0.000  0.019  0.000  0.000  0.000  0.000  0.000  0.038
tot    0.000  0.370  0.000  0.370  0.000  0.001  0.000  0.001  0.000  0.742
    1 -0.000 -0.005 -0.000  0.005 -0.000 -0.000 -0.000  0.000  0.000 -0.000
    2  0.000 -0.005  0.000  0.005 -0.000 -0.000  0.000  0.000  0.000 -0.000
    3 -0.000 -0.001  0.000  0.000  0.000 -0.000 -0.000 -0.000  0.000 -0.000
tot   -0.000 -0.011  0.000  0.010 -0.000 -0.000 -0.000  0.000  0.000 -0.000
    1  0.000 -0.001 -0.000  0.001 -0.000 -0.000  0.000  0.000  0.000  0.000
    2  0.000 -0.001 -0.000  0.001 -0.000 -0.000  0.000  0.000  0.000  0.000
    3 -0.000 -0.000 -0.000  0.000 -0.000 -0.000 -0.000 -0.000  0.000  0.000
tot    0.000 -0.001 -0.000  0.002 -0.000 -0.000 -0.000  0.000  0.000  0.000
    1 -0.000  0.176  0.000  0.176  0.000  0.000 -0.000  0.000  0.000  0.352
    2  0.000  0.175 -0.000  0.175  0.000  0.000 -0.000  0.000  0.000  0.352
    3 -0.000  0.019  0.000  0.019  0.000 -0.000 -0.000 -0.000  0.000  0.038
tot   -0.000  0.370  0.000  0.370  0.000  0.001 -0.000  0.001  0.000  0.742
 
band    23 # energy    0.86665662 # occ.  0.00000000
 
ion      s     py     pz     px    dxy    dyz    dz2    dxz  x2-y2    tot