Generated by rsgrad
    1.000000000
    -4.192311   -2.450010   -0.074887
     1.422586   -2.494506   -0.054756
     1.486383   -0.821947    4.844833
  Li  Ni   O
   1   2   4
Direct configuration=     1
     0.749999367     0.750000507     0.499999251
     0.003297817     0.995685142     0.009888263
     0.496703056     0.504313652     0.990110793
     0.645500174     0.107158764     0.787337288
     0.123290845     0.601698430     0.801883152
     0.854499019     0.392839998     0.212661963
     0.376710402     0.898299318     0.198117962
Generated by rsgrad
    1.000000000
    -4.181147   -2.450173   -0.072592
     1.419225   -2.495317   -0.055918
     1.479650   -0.821806    4.845276
  Li  Ni   O
   1   2   4
Direct configuration=     2
     0.750000724     0.749998557     0.500000830
     0.002741521     0.995898369     0.009528302
     0.497257471     0.504103292     0.990470954
     0.645581799     0.107664448     0.787613405
     0.123370547     0.602261158     0.801707225
     0.854416338     0.392335337     0.212386668
     0.376630613     0.897737694     0.198294095
Generated by rsgrad
    1.000000000
    -4.177562   -2.450226   -0.071855
     1.418146   -2.495578   -0.056291
     1.477488   -0.821761    4.845418
  Li  Ni   O
   1   2   4
Direct configuration=     3
     0.750000052     0.749998709     0.499999926
     0.002562607     0.995968255     0.009412539
     0.497436453     0.504032799     0.990586396
     0.645609190     0.107826690     0.787700760
     0.123395623     0.602444974     0.801649789
     0.854392382     0.392172397     0.212299030
     0.376603437     0.897556079     0.198349146
Generated by rsgrad
    1.000000000
    -4.170654   -2.449738   -0.069492
     1.415099   -2.493807   -0.057019
     1.472013   -0.820964    4.840727
  Li  Ni   O
   1   2   4
Direct configuration=     4
     0.749999998     0.749999807     0.499999954
     0.002991431     0.995922396     0.009468565
     0.497008885     0.504076026     0.990531002
     0.645391979     0.108141791     0.787591534
     0.123468779     0.602738080     0.801583706
     0.854606208     0.391858436     0.212408488
     0.376531909     0.897259298     0.198417920
Generated by rsgrad
    1.000000000
    -4.171943   -2.449829   -0.069933
     1.415668   -2.494138   -0.056883
     1.473035   -0.821113    4.841603
  Li  Ni   O
   1   2   4
Direct configuration=     5
     0.750000038     0.749999414     0.500000127
     0.002912322     0.995930793     0.009458740
     0.497089165     0.504070313     0.990540978
     0.645432753     0.108082213     0.787612105
     0.123455138     0.602683574     0.801595319
     0.854567399     0.391915877     0.212387468
     0.376543520     0.897316318     0.198404344
