 vasp.5.3.5 31Mar14 (build Apr 25 2014 16:28:52) complex                        
  
 executed on             LinuxIFC date 2019.02.08  10:54:30
 running on   12 total cores
 distrk:  each k-point on   12 cores,    1 groups
 distr:  one band on NCORES_PER_BAND=   6 cores,    2 groups


--------------------------------------------------------------------------------------------------------


 INCAR:
 POTCAR:    PAW_PBE Cu 22Jun2005                  
 POTCAR:    PAW_PBE Cu 22Jun2005                  
  local pseudopotential read in
  partial core-charges read in
  partial kinetic energy density read in
  atomic valenz-charges read in
  non local Contribution for L=           2  read in
    real space projection operators read in
  non local Contribution for L=           2  read in
    real space projection operators read in
  non local Contribution for L=           0  read in
    real space projection operators read in
  non local Contribution for L=           0  read in
    real space projection operators read in
  non local Contribution for L=           1  read in
    real space projection operators read in
  non local Contribution for L=           1  read in
    real space projection operators read in
    PAW grid and wavefunctions read in
 
   number of l-projection  operators is LMAX  =           6
   number of lm-projection operators is LMMAX =          18
 

 ----------------------------------------------------------------------------- 
|                                                                             |
|  ADVICE TO THIS USER RUNNING 'VASP/VAMP'   (HEAR YOUR MASTER'S VOICE ...):  |
|                                                                             |
|      You have a (more or less) 'small supercell' and for smaller cells      |
|      it is recommended  to use the reciprocal-space projection scheme!      |
|      The real space optimization is not  efficient for small cells and it   |
|      is also less accurate ...                                              |
|      Therefore set LREAL=.FALSE. in the  INCAR file                         |
|                                                                             |
 ----------------------------------------------------------------------------- 

 Optimization of the real space projectors (new method)

 maximal supplied QI-value         = 16.25
 optimisation between [QCUT,QGAM] = [ 13.49, 26.98] = [ 50.95,203.80] Ry 
 Optimized for a Real-space Cutoff    1.36 Angstroem

   l    n(q)    QCUT    max X(q) W(low)/X(q) W(high)/X(q)  e(spline) 
   2     10    13.489     4.610    0.20E-03    0.14E-03    0.23E-06
   2     10    13.489     8.522    0.31E-03    0.22E-03    0.40E-06
   0     11    13.489    51.609    0.56E-04    0.35E-04    0.18E-06
   0     11    13.489    27.747    0.50E-04    0.33E-04    0.17E-06
   1     11    13.489    20.408    0.21E-04    0.71E-04    0.40E-06
   1     11    13.489    13.425    0.19E-04    0.62E-04    0.35E-06
  PAW_PBE Cu 22Jun2005                  :
 energy of atom  1       EATOM=-1390.9808
 kinetic energy error for atom=    0.0015 (will be added to EATOM!!)
 
 
 POSCAR: Cu                                      
  positions in direct lattice
  velocities in cartesian coordinates
 exchange correlation table for  LEXCH =        8
   RHO(1)=    0.500       N(1)  =     2000
   RHO(2)=  100.500       N(2)  =     4000
 


--------------------------------------------------------------------------------------------------------


 ion  position               nearest neighbor table
   1  0.000  0.000  0.000-   2 2.56   3 2.56   4 2.56   2 2.56   3 2.56   2 2.56   4 2.56   2 2.56
                             3 2.56   4 2.56   3 2.56   4 2.56
   2  0.000  0.500  0.500-   1 2.56   3 2.56   4 2.56   1 2.56   4 2.56   1 2.56   3 2.56   1 2.56
                             3 2.56   4 2.56   4 2.56   3 2.56
   3  0.500  0.000  0.500-   1 2.56   2 2.56   4 2.56   1 2.56   4 2.56   2 2.56   4 2.56   4 2.56
                             1 2.56   2 2.56   1 2.56   2 2.56
   4  0.500  0.500  0.000-   1 2.56   2 2.56   3 2.56   2 2.56   3 2.56   1 2.56   3 2.56   3 2.56
                             1 2.56   2 2.56   2 2.56   1 2.56
 
  LATTYP: Found a simple cubic cell.
 ALAT       =     3.6216990795
  
  Lattice vectors:
  
 A1 = (   3.6216990795,   0.0000000000,   0.0000000000)
 A2 = (   0.0000000000,   3.6216990795,   0.0000000000)
 A3 = (   0.0000000000,   0.0000000000,   3.6216990795)


Analysis of symmetry for initial positions (statically):
=====================================================================
 Subroutine PRICEL returns following result:
 
  LATTYP: Found a face centered cubic cell.
 ALAT       =     3.6216990795
  
  Lattice vectors:
  
 A1 = (   1.8108495398,   1.8108495398,  -0.0000000000)
 A2 = (   1.8108495398,   0.0000000000,  -1.8108495398)
 A3 = (   0.0000000000,   1.8108495398,  -1.8108495398)
 
   4 primitive cells build up your supercell.
 

 Routine SETGRP: Setting up the symmetry group for a 
 simple cubic supercell.


 Subroutine GETGRP returns: Found 48 space group operations
 (whereof 48 operations were pure point group operations)
 out of a pool of 48 trial point group operations.


The static configuration has the point symmetry O_h .


Analysis of symmetry for dynamics (positions and initial velocities):
=====================================================================
 Subroutine PRICEL returns following result:
 
  LATTYP: Found a face centered cubic cell.
 ALAT       =     3.6216990795
  
  Lattice vectors:
  
 A1 = (   1.8108495398,   1.8108495398,  -0.0000000000)
 A2 = (   1.8108495398,   0.0000000000,  -1.8108495398)
 A3 = (   0.0000000000,   1.8108495398,  -1.8108495398)
 
   4 primitive cells build up your supercell.
 

 Routine SETGRP: Setting up the symmetry group for a 
 simple cubic supercell.


 Subroutine GETGRP returns: Found 48 space group operations
 (whereof 48 operations were pure point group operations)
 out of a pool of 48 trial point group operations.


The dynamic configuration has the point symmetry O_h .
 
 
 KPOINTS: E                                       

Automatic generation of k-mesh.
Space group operators:
 irot       det(A)        alpha          n_x          n_y          n_z        tau_x        tau_y        tau_z
    1     1.000000     0.000000     1.000000     0.000000     0.000000     0.000000     0.000000     0.000000
    2    -1.000000     0.000000     1.000000     0.000000     0.000000     0.000000     0.000000     0.000000
    3     1.000000   120.000000    -0.577350    -0.577350    -0.577350     0.000000     0.000000     0.000000
    4    -1.000000   120.000000    -0.577350    -0.577350    -0.577350     0.000000     0.000000     0.000000
    5     1.000000   120.000000     0.577350     0.577350     0.577350     0.000000     0.000000     0.000000
    6    -1.000000   120.000000     0.577350     0.577350     0.577350     0.000000     0.000000     0.000000
    7     1.000000    90.000000     0.000000     0.000000    -1.000000     0.000000     0.000000     0.000000
    8    -1.000000    90.000000     0.000000     0.000000    -1.000000     0.000000     0.000000     0.000000
    9     1.000000   180.000000     0.000000     0.707107     0.707107     0.000000     0.000000     0.000000
   10    -1.000000   180.000000     0.000000     0.707107     0.707107     0.000000     0.000000     0.000000
   11     1.000000    90.000000     0.000000     1.000000     0.000000     0.000000     0.000000     0.000000
   12    -1.000000    90.000000     0.000000     1.000000     0.000000     0.000000     0.000000     0.000000
   13     1.000000   180.000000     0.000000     0.000000     1.000000     0.000000     0.000000     0.000000
   14    -1.000000   180.000000     0.000000     0.000000     1.000000     0.000000     0.000000     0.000000
   15     1.000000   120.000000    -0.577350     0.577350     0.577350     0.000000     0.000000     0.000000
   16    -1.000000   120.000000    -0.577350     0.577350     0.577350     0.000000     0.000000     0.000000
   17     1.000000   120.000000    -0.577350     0.577350    -0.577350     0.000000     0.000000     0.000000
   18    -1.000000   120.000000    -0.577350     0.577350    -0.577350     0.000000     0.000000     0.000000
   19     1.000000    90.000000     0.000000     0.000000     1.000000     0.000000     0.000000     0.000000
   20    -1.000000    90.000000     0.000000     0.000000     1.000000     0.000000     0.000000     0.000000
   21     1.000000    90.000000    -1.000000     0.000000     0.000000     0.000000     0.000000     0.000000
   22    -1.000000    90.000000    -1.000000     0.000000     0.000000     0.000000     0.000000     0.000000
   23     1.000000   180.000000     0.707107     0.000000     0.707107     0.000000     0.000000     0.000000
   24    -1.000000   180.000000     0.707107     0.000000     0.707107     0.000000     0.000000     0.000000
   25     1.000000   120.000000     0.577350    -0.577350     0.577350     0.000000     0.000000     0.000000
   26    -1.000000   120.000000     0.577350    -0.577350     0.577350     0.000000     0.000000     0.000000
   27     1.000000   120.000000    -0.577350    -0.577350     0.577350     0.000000     0.000000     0.000000
   28    -1.000000   120.000000    -0.577350    -0.577350     0.577350     0.000000     0.000000     0.000000
   29     1.000000   180.000000     1.000000     0.000000     0.000000     0.000000     0.000000     0.000000
   30    -1.000000   180.000000     1.000000     0.000000     0.000000     0.000000     0.000000     0.000000
   31     1.000000    90.000000     0.000000    -1.000000     0.000000     0.000000     0.000000     0.000000
   32    -1.000000    90.000000     0.000000    -1.000000     0.000000     0.000000     0.000000     0.000000
   33     1.000000   180.000000     0.707107     0.707107     0.000000     0.000000     0.000000     0.000000
   34    -1.000000   180.000000     0.707107     0.707107     0.000000     0.000000     0.000000     0.000000
   35     1.000000    90.000000     1.000000     0.000000     0.000000     0.000000     0.000000     0.000000
   36    -1.000000    90.000000     1.000000     0.000000     0.000000     0.000000     0.000000     0.000000
   37     1.000000   120.000000     0.577350    -0.577350    -0.577350     0.000000     0.000000     0.000000
   38    -1.000000   120.000000     0.577350    -0.577350    -0.577350     0.000000     0.000000     0.000000
   39     1.000000   180.000000     0.000000     1.000000     0.000000     0.000000     0.000000     0.000000
   40    -1.000000   180.000000     0.000000     1.000000     0.000000     0.000000     0.000000     0.000000
   41     1.000000   120.000000     0.577350     0.577350    -0.577350     0.000000     0.000000     0.000000
   42    -1.000000   120.000000     0.577350     0.577350    -0.577350     0.000000     0.000000     0.000000
   43     1.000000   180.000000     0.000000    -0.707107     0.707107     0.000000     0.000000     0.000000
   44    -1.000000   180.000000     0.000000    -0.707107     0.707107     0.000000     0.000000     0.000000
   45     1.000000   180.000000     0.707107    -0.707107     0.000000     0.000000     0.000000     0.000000
   46    -1.000000   180.000000     0.707107    -0.707107     0.000000     0.000000     0.000000     0.000000
   47     1.000000   180.000000     0.707107     0.000000    -0.707107     0.000000     0.000000     0.000000
   48    -1.000000   180.000000     0.707107     0.000000    -0.707107     0.000000     0.000000     0.000000
 
 Subroutine IBZKPT returns following result:
 ===========================================
 
 Found     84 irreducible k-points:
 
 Following reciprocal coordinates:
            Coordinates               Weight
  0.000000  0.000000  0.000000      1.000000
  0.076923  0.000000  0.000000      6.000000
  0.153846  0.000000  0.000000      6.000000
  0.230769  0.000000  0.000000      6.000000
  0.307692  0.000000  0.000000      6.000000
  0.384615  0.000000  0.000000      6.000000
  0.461538  0.000000  0.000000      6.000000
  0.076923  0.076923  0.000000     12.000000
  0.153846  0.076923  0.000000     24.000000
  0.230769  0.076923  0.000000     24.000000
  0.307692  0.076923  0.000000     24.000000
  0.384615  0.076923  0.000000     24.000000
  0.461538  0.076923  0.000000     24.000000
  0.153846  0.153846  0.000000     12.000000
  0.230769  0.153846  0.000000     24.000000
  0.307692  0.153846  0.000000     24.000000
  0.384615  0.153846  0.000000     24.000000
  0.461538  0.153846  0.000000     24.000000
  0.230769  0.230769  0.000000     12.000000
  0.307692  0.230769  0.000000     24.000000
  0.384615  0.230769  0.000000     24.000000
  0.461538  0.230769  0.000000     24.000000
  0.307692  0.307692  0.000000     12.000000
  0.384615  0.307692  0.000000     24.000000
  0.461538  0.307692  0.000000     24.000000
  0.384615  0.384615  0.000000     12.000000
  0.461538  0.384615  0.000000     24.000000
  0.461538  0.461538  0.000000     12.000000
  0.076923  0.076923  0.076923      8.000000
  0.153846  0.076923  0.076923     24.000000
  0.230769  0.076923  0.076923     24.000000
  0.307692  0.076923  0.076923     24.000000
  0.384615  0.076923  0.076923     24.000000
  0.461538  0.076923  0.076923     24.000000
  0.153846  0.153846  0.076923     24.000000
  0.230769  0.153846  0.076923     48.000000
  0.307692  0.153846  0.076923     48.000000
  0.384615  0.153846  0.076923     48.000000
  0.461538  0.153846  0.076923     48.000000
  0.230769  0.230769  0.076923     24.000000
  0.307692  0.230769  0.076923     48.000000
  0.384615  0.230769  0.076923     48.000000
  0.461538  0.230769  0.076923     48.000000
  0.307692  0.307692  0.076923     24.000000
  0.384615  0.307692  0.076923     48.000000
  0.461538  0.307692  0.076923     48.000000
  0.384615  0.384615  0.076923     24.000000
  0.461538  0.384615  0.076923     48.000000
  0.461538  0.461538  0.076923     24.000000
  0.153846  0.153846  0.153846      8.000000
  0.230769  0.153846  0.153846     24.000000
  0.307692  0.153846  0.153846     24.000000
  0.384615  0.153846  0.153846     24.000000
  0.461538  0.153846  0.153846     24.000000
  0.230769  0.230769  0.153846     24.000000
  0.307692  0.230769  0.153846     48.000000
  0.384615  0.230769  0.153846     48.000000
  0.461538  0.230769  0.153846     48.000000
  0.307692  0.307692  0.153846     24.000000
  0.384615  0.307692  0.153846     48.000000
  0.461538  0.307692  0.153846     48.000000
  0.384615  0.384615  0.153846     24.000000
  0.461538  0.384615  0.153846     48.000000
  0.461538  0.461538  0.153846     24.000000
  0.230769  0.230769  0.230769      8.000000
  0.307692  0.230769  0.230769     24.000000
  0.384615  0.230769  0.230769     24.000000
  0.461538  0.230769  0.230769     24.000000
  0.307692  0.307692  0.230769     24.000000
  0.384615  0.307692  0.230769     48.000000
  0.461538  0.307692  0.230769     48.000000
  0.384615  0.384615  0.230769     24.000000
  0.461538  0.384615  0.230769     48.000000
  0.461538  0.461538  0.230769     24.000000
  0.307692  0.307692  0.307692      8.000000
  0.384615  0.307692  0.307692     24.000000
  0.461538  0.307692  0.307692     24.000000
  0.384615  0.384615  0.307692     24.000000
  0.461538  0.384615  0.307692     48.000000
  0.461538  0.461538  0.307692     24.000000
  0.384615  0.384615  0.384615      8.000000
  0.461538  0.384615  0.384615     24.000000
  0.461538  0.461538  0.384615     24.000000
  0.461538  0.461538  0.461538      8.000000
 
 Following cartesian coordinates:
            Coordinates               Weight
  0.000000  0.000000  0.000000      1.000000
  0.021239  0.000000  0.000000      6.000000
  0.042479  0.000000  0.000000      6.000000
  0.063718  0.000000  0.000000      6.000000
  0.084958  0.000000  0.000000      6.000000
  0.106197  0.000000  0.000000      6.000000
  0.127437  0.000000  0.000000      6.000000
  0.021239  0.021239  0.000000     12.000000
  0.042479  0.021239  0.000000     24.000000
  0.063718  0.021239  0.000000     24.000000
  0.084958  0.021239  0.000000     24.000000
  0.106197  0.021239  0.000000     24.000000
  0.127437  0.021239  0.000000     24.000000
  0.042479  0.042479  0.000000     12.000000
  0.063718  0.042479  0.000000     24.000000
  0.084958  0.042479  0.000000     24.000000
  0.106197  0.042479  0.000000     24.000000
  0.127437  0.042479  0.000000     24.000000
  0.063718  0.063718  0.000000     12.000000
  0.084958  0.063718  0.000000     24.000000
  0.106197  0.063718  0.000000     24.000000
  0.127437  0.063718  0.000000     24.000000
  0.084958  0.084958  0.000000     12.000000
  0.106197  0.084958  0.000000     24.000000
  0.127437  0.084958  0.000000     24.000000
  0.106197  0.106197  0.000000     12.000000
  0.127437  0.106197  0.000000     24.000000
  0.127437  0.127437  0.000000     12.000000
  0.021239  0.021239  0.021239      8.000000
  0.042479  0.021239  0.021239     24.000000
  0.063718  0.021239  0.021239     24.000000
  0.084958  0.021239  0.021239     24.000000
  0.106197  0.021239  0.021239     24.000000
  0.127437  0.021239  0.021239     24.000000
  0.042479  0.042479  0.021239     24.000000
  0.063718  0.042479  0.021239     48.000000
  0.084958  0.042479  0.021239     48.000000
  0.106197  0.042479  0.021239     48.000000
  0.127437  0.042479  0.021239     48.000000
  0.063718  0.063718  0.021239     24.000000
  0.084958  0.063718  0.021239     48.000000
  0.106197  0.063718  0.021239     48.000000
  0.127437  0.063718  0.021239     48.000000
  0.084958  0.084958  0.021239     24.000000
  0.106197  0.084958  0.021239     48.000000
  0.127437  0.084958  0.021239     48.000000
  0.106197  0.106197  0.021239     24.000000
  0.127437  0.106197  0.021239     48.000000
  0.127437  0.127437  0.021239     24.000000
  0.042479  0.042479  0.042479      8.000000
  0.063718  0.042479  0.042479     24.000000
  0.084958  0.042479  0.042479     24.000000
  0.106197  0.042479  0.042479     24.000000
  0.127437  0.042479  0.042479     24.000000
  0.063718  0.063718  0.042479     24.000000
  0.084958  0.063718  0.042479     48.000000
  0.106197  0.063718  0.042479     48.000000
  0.127437  0.063718  0.042479     48.000000
  0.084958  0.084958  0.042479     24.000000
  0.106197  0.084958  0.042479     48.000000
  0.127437  0.084958  0.042479     48.000000
  0.106197  0.106197  0.042479     24.000000
  0.127437  0.106197  0.042479     48.000000
  0.127437  0.127437  0.042479     24.000000
  0.063718  0.063718  0.063718      8.000000
  0.084958  0.063718  0.063718     24.000000
  0.106197  0.063718  0.063718     24.000000
  0.127437  0.063718  0.063718     24.000000
  0.084958  0.084958  0.063718     24.000000
  0.106197  0.084958  0.063718     48.000000
  0.127437  0.084958  0.063718     48.000000
  0.106197  0.106197  0.063718     24.000000
  0.127437  0.106197  0.063718     48.000000
  0.127437  0.127437  0.063718     24.000000
  0.084958  0.084958  0.084958      8.000000
  0.106197  0.084958  0.084958     24.000000
  0.127437  0.084958  0.084958     24.000000
  0.106197  0.106197  0.084958     24.000000
  0.127437  0.106197  0.084958     48.000000
  0.127437  0.127437  0.084958     24.000000
  0.106197  0.106197  0.106197      8.000000
  0.127437  0.106197  0.106197     24.000000
  0.127437  0.127437  0.106197     24.000000
  0.127437  0.127437  0.127437      8.000000
 


--------------------------------------------------------------------------------------------------------




 Dimension of arrays:
   k-points           NKPTS =     84   k-points in BZ     NKDIM =     84   number of bands    NBANDS=     26
   number of dos      NEDOS =   3000   number of ions     NIONS =      4
   non local maximal  LDIM  =      6   non local SUM 2l+1 LMDIM =     18
   total plane-waves  NPLWV =  13824
   max r-space proj   IRMAX =   3127   max aug-charges    IRDMAX=   8628
   dimension x,y,z NGX =    24 NGY =   24 NGZ =   24
   dimension x,y,z NGXF=    48 NGYF=   48 NGZF=   48
   support grid    NGXF=    48 NGYF=   48 NGZF=   48
   ions per type =               4
 NGX,Y,Z   is equivalent  to a cutoff of  11.02, 11.02, 11.02 a.u.
 NGXF,Y,Z  is equivalent  to a cutoff of  22.03, 22.03, 22.03 a.u.


 I would recommend the setting:
   dimension x,y,z NGX =    23 NGY =   23 NGZ =   23
 SYSTEM =  Bulk                                    
 POSCAR =  Cu                                      

 Startparameter for this run:
   NWRITE =      0    write-flag & timer
   PREC   = normal    normal or accurate (medium, high low for compatibility)
   ISTART =      0    job   : 0-new  1-cont  2-samecut
   ICHARG =      2    charge: 1-file 2-atom 10-const
   ISPIN  =      1    spin polarized calculation?
   LNONCOLLINEAR =      F non collinear calculations
   LSORBIT =      F    spin-orbit coupling
   INIWAV =      1    electr: 0-lowe 1-rand  2-diag
   LASPH  =      F    aspherical Exc in radial PAW
   METAGGA=      F    non-selfconsistent MetaGGA calc.

 Electronic Relaxation 1
   ENCUT  =  700.0 eV  51.45 Ry    7.17 a.u.   7.81  7.81  7.81*2*pi/ulx,y,z
   ENINI  =  700.0     initial cutoff
   ENAUG  =  587.0 eV  augmentation charge cutoff
   NELM   =     80;   NELMIN=  2; NELMDL=  0     # of ELM steps 
   EDIFF  = 0.1E-04   stopping-criterion for ELM
   LREAL  =      T    real-space projection
   NLSPLINE    = F    spline interpolate recip. space projectors
   LCOMPAT=      F    compatible to vasp.4.4
   GGA_COMPAT  = T    GGA compatible to vasp.4.4-vasp.4.6
   LMAXPAW     = -100 max onsite density
   LMAXMIX     =    2 max onsite mixed and CHGCAR
   VOSKOWN=      0    Vosko Wilk Nusair interpolation
   ROPT   =   -0.00050
 Ionic relaxation
   EDIFFG = -.1E-01   stopping-criterion for IOM
   NSW    =      1    number of steps for IOM
   NBLOCK =      1;   KBLOCK =      1    inner block; outer block 
   IBRION =      2    ionic relax: 0-MD 1-quasi-New 2-CG
   NFREE  =      1    steps in history (QN), initial steepest desc. (CG)
   ISIF   =      3    stress and relaxation
   IWAVPR =     11    prediction:  0-non 1-charg 2-wave 3-comb
   ISYM   =      2    0-nonsym 1-usesym 2-fastsym
   LCORR  =      T    Harris-Foulkes like correction to forces

   POTIM  = 0.1000    time-step for ionic-motion
   TEIN   =    0.0    initial temperature
   TEBEG  =    0.0;   TEEND  =   0.0 temperature during run
   SMASS  =  -3.00    Nose mass-parameter (am)
   estimated Nose-frequenzy (Omega)   =  0.10E-29 period in steps =****** mass=  -0.300E-27a.u.
   SCALEE = 1.0000    scale energy and forces
   NPACO  =    256;   APACO  = 16.0  distance and # of slots for P.C.
   PSTRESS=    0.0 pullay stress

  Mass of Ions in am
   POMASS =  63.55
  Ionic Valenz
   ZVAL   =  11.00
  Atomic Wigner-Seitz radii
   RWIGS  =  -1.00
  virtual crystal weights 
   VCA    =   1.00
   NELECT =      44.0000    total number of electrons
   NUPDOWN=      -1.0000    fix difference up-down

 DOS related values:
   EMIN   =  10.00;   EMAX   =-10.00  energy-range for DOS
   EFERMI =   0.00
   ISMEAR =     1;   SIGMA  =   0.10  broadening in eV -4-tet -1-fermi 0-gaus

 Electronic relaxation 2 (details)
   IALGO  =     68    algorithm
   LDIAG  =      T    sub-space diagonalisation (order eigenvalues)
   LSUBROT=      F    optimize rotation matrix (better conditioning)
   TURBO    =      0    0=normal 1=particle mesh
   IRESTART =      0    0=no restart 2=restart with 2 vectors
   NREBOOT  =      0    no. of reboots
   NMIN     =      0    reboot dimension
   EREF     =   0.00    reference energy to select bands
   IMIX   =      4    mixing-type and parameters
     AMIX     =   0.40;   BMIX     =  1.00
     AMIX_MAG =   1.60;   BMIX_MAG =  1.00
     AMIN     =   0.10
     WC   =   100.;   INIMIX=   1;  MIXPRE=   1;  MAXMIX= -45

 Intra band minimization:
   WEIMIN = 0.0010     energy-eigenvalue tresh-hold
   EBREAK =  0.96E-07  absolut break condition
   DEPER  =   0.30     relativ break condition  

   TIME   =   0.40     timestep for ELM

  volume/ion in A,a.u.               =      11.88        80.14
  Fermi-wavevector in a.u.,A,eV,Ry     =   1.595806  3.015636 34.648542  2.546596
  Thomas-Fermi vector in A             =   2.693667
 
 Write flags
   LWAVE  =      T    write WAVECAR
   LCHARG =      T    write CHGCAR
   LVTOT  =      F    write LOCPOT, total local potential
   LVHAR  =      F    write LOCPOT, Hartree potential only
   LELF   =      F    write electronic localiz. function (ELF)
   LORBIT =     11    0 simple, 1 ext, 2 COOP (PROOUT)


 Dipole corrections
   LMONO  =      F    monopole corrections only (constant potential shift)
   LDIPOL =      F    correct potential (dipole corrections)
   IDIPOL =      0    1-x, 2-y, 3-z, 4-all directions 
   EPSILON=  1.0000000 bulk dielectric constant

 Exchange correlation treatment:
   GGA     =    PE    GGA type
   LEXCH   =     8    internal setting for exchange type
   VOSKOWN=      0    Vosko Wilk Nusair interpolation
   LHFCALC =     F    Hartree Fock is set to
   LHFONE  =     F    Hartree Fock one center treatment
   AEXX    =    0.0000 exact exchange contribution

 Linear response parameters
   LEPSILON=     F    determine dielectric tensor
   LRPA    =     F    only Hartree local field effects (RPA)
   LNABLA  =     F    use nabla operator in PAW spheres
   LVEL    =     F    velocity operator in full k-point grid
   LINTERFAST=   F  fast interpolation
   KINTER  =     0    interpolate to denser k-point grid
   CSHIFT  =0.1000    complex shift for real part using Kramers Kronig
   OMEGAMAX=  -1.0    maximum frequency
   DEG_THRESHOLD= 0.2000000E-02 threshold for treating states as degnerate
   RTIME   =    0.100 relaxation time in fs

 Orbital magnetization related:
   ORBITALMAG=     F  switch on orbital magnetization
   LCHIMAG   =     F  perturbation theory with respect to B field
   DQ        =  0.001000  dq finite difference perturbation B field



--------------------------------------------------------------------------------------------------------


 conjugate gradient relaxation of ions
 charge density and potential will be updated during run
 non-spin polarized calculation
 RMM-DIIS sequential band-by-band and
  variant of blocked Davidson during initial phase
 perform sub-space diagonalisation
    before iterative eigenvector-optimisation
 modified Broyden-mixing scheme, WC =      100.0
 initial mixing is a Kerker type mixing with AMIX =  0.4000 and BMIX =      1.0000
 Hartree-type preconditioning will be used
 using additional bands            4
 real space projection scheme for non local part
 use partial core corrections
 calculate Harris-corrections to forces 
   (improved forces if not selfconsistent)
 use gradient corrections 
 use of overlap-Matrix (Vanderbilt PP)
 Methfessel and Paxton  Order N= 1 SIGMA  =   0.10


--------------------------------------------------------------------------------------------------------


  energy-cutoff  :      700.00
  volume of cell :       47.50
      direct lattice vectors                 reciprocal lattice vectors
     3.621699080  0.000000000  0.000000000     0.276113498  0.000000000  0.000000000
     0.000000000  3.621699080  0.000000000     0.000000000  0.276113498  0.000000000
     0.000000000  0.000000000  3.621699080     0.000000000  0.000000000  0.276113498

  length of vectors
     3.621699080  3.621699080  3.621699080     0.276113498  0.276113498  0.276113498


 
 k-points in units of 2pi/SCALE and weight: E                                       
   0.00000000  0.00000000  0.00000000       0.000
   0.02123950  0.00000000  0.00000000       0.003
   0.04247900  0.00000000  0.00000000       0.003
   0.06371850  0.00000000  0.00000000       0.003
   0.08495800  0.00000000  0.00000000       0.003
   0.10619750  0.00000000  0.00000000       0.003
   0.12743700  0.00000000  0.00000000       0.003
   0.02123950  0.02123950  0.00000000       0.005
   0.04247900  0.02123950  0.00000000       0.011
   0.06371850  0.02123950  0.00000000       0.011
   0.08495800  0.02123950  0.00000000       0.011
   0.10619750  0.02123950  0.00000000       0.011
   0.12743700  0.02123950  0.00000000       0.011
   0.04247900  0.04247900  0.00000000       0.005
   0.06371850  0.04247900  0.00000000       0.011
   0.08495800  0.04247900  0.00000000       0.011
   0.10619750  0.04247900  0.00000000       0.011
   0.12743700  0.04247900  0.00000000       0.011
   0.06371850  0.06371850  0.00000000       0.005
   0.08495800  0.06371850  0.00000000       0.011
   0.10619750  0.06371850  0.00000000       0.011
   0.12743700  0.06371850  0.00000000       0.011
   0.08495800  0.08495800  0.00000000       0.005
   0.10619750  0.08495800  0.00000000       0.011
   0.12743700  0.08495800  0.00000000       0.011
   0.10619750  0.10619750  0.00000000       0.005
   0.12743700  0.10619750  0.00000000       0.011
   0.12743700  0.12743700  0.00000000       0.005
   0.02123950  0.02123950  0.02123950       0.004
   0.04247900  0.02123950  0.02123950       0.011
   0.06371850  0.02123950  0.02123950       0.011
   0.08495800  0.02123950  0.02123950       0.011
   0.10619750  0.02123950  0.02123950       0.011
   0.12743700  0.02123950  0.02123950       0.011
   0.04247900  0.04247900  0.02123950       0.011
   0.06371850  0.04247900  0.02123950       0.022
   0.08495800  0.04247900  0.02123950       0.022
   0.10619750  0.04247900  0.02123950       0.022
   0.12743700  0.04247900  0.02123950       0.022
   0.06371850  0.06371850  0.02123950       0.011
   0.08495800  0.06371850  0.02123950       0.022
   0.10619750  0.06371850  0.02123950       0.022
   0.12743700  0.06371850  0.02123950       0.022
   0.08495800  0.08495800  0.02123950       0.011
   0.10619750  0.08495800  0.02123950       0.022
   0.12743700  0.08495800  0.02123950       0.022
   0.10619750  0.10619750  0.02123950       0.011
   0.12743700  0.10619750  0.02123950       0.022
   0.12743700  0.12743700  0.02123950       0.011
   0.04247900  0.04247900  0.04247900       0.004
   0.06371850  0.04247900  0.04247900       0.011
   0.08495800  0.04247900  0.04247900       0.011
   0.10619750  0.04247900  0.04247900       0.011
   0.12743700  0.04247900  0.04247900       0.011
   0.06371850  0.06371850  0.04247900       0.011
   0.08495800  0.06371850  0.04247900       0.022
   0.10619750  0.06371850  0.04247900       0.022
   0.12743700  0.06371850  0.04247900       0.022
   0.08495800  0.08495800  0.04247900       0.011
   0.10619750  0.08495800  0.04247900       0.022
   0.12743700  0.08495800  0.04247900       0.022
   0.10619750  0.10619750  0.04247900       0.011
   0.12743700  0.10619750  0.04247900       0.022
   0.12743700  0.12743700  0.04247900       0.011
   0.06371850  0.06371850  0.06371850       0.004
   0.08495800  0.06371850  0.06371850       0.011
   0.10619750  0.06371850  0.06371850       0.011
   0.12743700  0.06371850  0.06371850       0.011
   0.08495800  0.08495800  0.06371850       0.011
   0.10619750  0.08495800  0.06371850       0.022
   0.12743700  0.08495800  0.06371850       0.022
   0.10619750  0.10619750  0.06371850       0.011
   0.12743700  0.10619750  0.06371850       0.022
   0.12743700  0.12743700  0.06371850       0.011
   0.08495800  0.08495800  0.08495800       0.004
   0.10619750  0.08495800  0.08495800       0.011
   0.12743700  0.08495800  0.08495800       0.011
   0.10619750  0.10619750  0.08495800       0.011
   0.12743700  0.10619750  0.08495800       0.022
   0.12743700  0.12743700  0.08495800       0.011
   0.10619750  0.10619750  0.10619750       0.004
   0.12743700  0.10619750  0.10619750       0.011
   0.12743700  0.12743700  0.10619750       0.011
   0.12743700  0.12743700  0.12743700       0.004
 
 k-points in reciprocal lattice and weights: E                                       
   0.00000000  0.00000000  0.00000000       0.000
   0.07692308  0.00000000  0.00000000       0.003
   0.15384615  0.00000000  0.00000000       0.003
   0.23076923  0.00000000  0.00000000       0.003
   0.30769231  0.00000000  0.00000000       0.003
   0.38461538  0.00000000  0.00000000       0.003
   0.46153846  0.00000000  0.00000000       0.003
   0.07692308  0.07692308  0.00000000       0.005
   0.15384615  0.07692308  0.00000000       0.011
   0.23076923  0.07692308  0.00000000       0.011
   0.30769231  0.07692308  0.00000000       0.011
   0.38461538  0.07692308  0.00000000       0.011
   0.46153846  0.07692308  0.00000000       0.011
   0.15384615  0.15384615  0.00000000       0.005
   0.23076923  0.15384615  0.00000000       0.011
   0.30769231  0.15384615  0.00000000       0.011
   0.38461538  0.15384615  0.00000000       0.011
   0.46153846  0.15384615  0.00000000       0.011
   0.23076923  0.23076923  0.00000000       0.005
   0.30769231  0.23076923  0.00000000       0.011
   0.38461538  0.23076923  0.00000000       0.011
   0.46153846  0.23076923  0.00000000       0.011
   0.30769231  0.30769231  0.00000000       0.005
   0.38461538  0.30769231  0.00000000       0.011
   0.46153846  0.30769231  0.00000000       0.011
   0.38461538  0.38461538  0.00000000       0.005
   0.46153846  0.38461538  0.00000000       0.011
   0.46153846  0.46153846  0.00000000       0.005
   0.07692308  0.07692308  0.07692308       0.004
   0.15384615  0.07692308  0.07692308       0.011
   0.23076923  0.07692308  0.07692308       0.011
   0.30769231  0.07692308  0.07692308       0.011
   0.38461538  0.07692308  0.07692308       0.011
   0.46153846  0.07692308  0.07692308       0.011
   0.15384615  0.15384615  0.07692308       0.011
   0.23076923  0.15384615  0.07692308       0.022
   0.30769231  0.15384615  0.07692308       0.022
   0.38461538  0.15384615  0.07692308       0.022
   0.46153846  0.15384615  0.07692308       0.022
   0.23076923  0.23076923  0.07692308       0.011
   0.30769231  0.23076923  0.07692308       0.022
   0.38461538  0.23076923  0.07692308       0.022
   0.46153846  0.23076923  0.07692308       0.022
   0.30769231  0.30769231  0.07692308       0.011
   0.38461538  0.30769231  0.07692308       0.022
   0.46153846  0.30769231  0.07692308       0.022
   0.38461538  0.38461538  0.07692308       0.011
   0.46153846  0.38461538  0.07692308       0.022
   0.46153846  0.46153846  0.07692308       0.011
   0.15384615  0.15384615  0.15384615       0.004
   0.23076923  0.15384615  0.15384615       0.011
   0.30769231  0.15384615  0.15384615       0.011
   0.38461538  0.15384615  0.15384615       0.011
   0.46153846  0.15384615  0.15384615       0.011
   0.23076923  0.23076923  0.15384615       0.011
   0.30769231  0.23076923  0.15384615       0.022
   0.38461538  0.23076923  0.15384615       0.022
   0.46153846  0.23076923  0.15384615       0.022
   0.30769231  0.30769231  0.15384615       0.011
   0.38461538  0.30769231  0.15384615       0.022
   0.46153846  0.30769231  0.15384615       0.022
   0.38461538  0.38461538  0.15384615       0.011
   0.46153846  0.38461538  0.15384615       0.022
   0.46153846  0.46153846  0.15384615       0.011
   0.23076923  0.23076923  0.23076923       0.004
   0.30769231  0.23076923  0.23076923       0.011
   0.38461538  0.23076923  0.23076923       0.011
   0.46153846  0.23076923  0.23076923       0.011
   0.30769231  0.30769231  0.23076923       0.011
   0.38461538  0.30769231  0.23076923       0.022
   0.46153846  0.30769231  0.23076923       0.022
   0.38461538  0.38461538  0.23076923       0.011
   0.46153846  0.38461538  0.23076923       0.022
   0.46153846  0.46153846  0.23076923       0.011
   0.30769231  0.30769231  0.30769231       0.004
   0.38461538  0.30769231  0.30769231       0.011
   0.46153846  0.30769231  0.30769231       0.011
   0.38461538  0.38461538  0.30769231       0.011
   0.46153846  0.38461538  0.30769231       0.022
   0.46153846  0.46153846  0.30769231       0.011
   0.38461538  0.38461538  0.38461538       0.004
   0.46153846  0.38461538  0.38461538       0.011
   0.46153846  0.46153846  0.38461538       0.011
   0.46153846  0.46153846  0.46153846       0.004
 
 position of ions in fractional coordinates (direct lattice) 
   0.00000000  0.00000000  0.00000000
   0.00000000  0.50000000  0.50000000
   0.50000000  0.00000000  0.50000000
   0.50000000  0.50000000  0.00000000
 
 position of ions in cartesian coordinates  (Angst):
   0.00000000  0.00000000  0.00000000
   0.00000000  1.81084954  1.81084954
   1.81084954  0.00000000  1.81084954
   1.81084954  1.81084954  0.00000000
 


--------------------------------------------------------------------------------------------------------


 k-point  1 :   0.0000 0.0000 0.0000  plane waves:    2007
 k-point  2 :   0.0769 0.0000 0.0000  plane waves:    1983
 k-point  3 :   0.1538 0.0000 0.0000  plane waves:    1991
 k-point  4 :   0.2308 0.0000 0.0000  plane waves:    1980
 k-point  5 :   0.3077 0.0000 0.0000  plane waves:    1992
 k-point  6 :   0.3846 0.0000 0.0000  plane waves:    2000
 k-point  7 :   0.4615 0.0000 0.0000  plane waves:    2004
 k-point  8 :   0.0769 0.0769 0.0000  plane waves:    1987
 k-point  9 :   0.1538 0.0769 0.0000  plane waves:    2001
 k-point 10 :   0.2308 0.0769 0.0000  plane waves:    1991
 k-point 11 :   0.3077 0.0769 0.0000  plane waves:    1991
 k-point 12 :   0.3846 0.0769 0.0000  plane waves:    2002
 k-point 13 :   0.4615 0.0769 0.0000  plane waves:    2005
 k-point 14 :   0.1538 0.1538 0.0000  plane waves:    1995
 k-point 15 :   0.2308 0.1538 0.0000  plane waves:    1993
 k-point 16 :   0.3077 0.1538 0.0000  plane waves:    1995
 k-point 17 :   0.3846 0.1538 0.0000  plane waves:    1994
 k-point 18 :   0.4615 0.1538 0.0000  plane waves:    1999
 k-point 19 :   0.2308 0.2308 0.0000  plane waves:    1993
 k-point 20 :   0.3077 0.2308 0.0000  plane waves:    1991
 k-point 21 :   0.3846 0.2308 0.0000  plane waves:    1999
 k-point 22 :   0.4615 0.2308 0.0000  plane waves:    2003
 k-point 23 :   0.3077 0.3077 0.0000  plane waves:    2007
 k-point 24 :   0.3846 0.3077 0.0000  plane waves:    2003
 k-point 25 :   0.4615 0.3077 0.0000  plane waves:    2008
 k-point 26 :   0.3846 0.3846 0.0000  plane waves:    2009
 k-point 27 :   0.4615 0.3846 0.0000  plane waves:    2000
 k-point 28 :   0.4615 0.4615 0.0000  plane waves:    1997
 k-point 29 :   0.0769 0.0769 0.0769  plane waves:    1995
 k-point 30 :   0.1538 0.0769 0.0769  plane waves:    1992
 k-point 31 :   0.2308 0.0769 0.0769  plane waves:    1985
 k-point 32 :   0.3077 0.0769 0.0769  plane waves:    1996
 k-point 33 :   0.3846 0.0769 0.0769  plane waves:    1997
 k-point 34 :   0.4615 0.0769 0.0769  plane waves:    1998
 k-point 35 :   0.1538 0.1538 0.0769  plane waves:    1985
 k-point 36 :   0.2308 0.1538 0.0769  plane waves:    1985
 k-point 37 :   0.3077 0.1538 0.0769  plane waves:    1991
 k-point 38 :   0.3846 0.1538 0.0769  plane waves:    2001
 k-point 39 :   0.4615 0.1538 0.0769  plane waves:    2000
 k-point 40 :   0.2308 0.2308 0.0769  plane waves:    1995
 k-point 41 :   0.3077 0.2308 0.0769  plane waves:    1997
 k-point 42 :   0.3846 0.2308 0.0769  plane waves:    1998
 k-point 43 :   0.4615 0.2308 0.0769  plane waves:    2001
 k-point 44 :   0.3077 0.3077 0.0769  plane waves:    2001
 k-point 45 :   0.3846 0.3077 0.0769  plane waves:    2002
 k-point 46 :   0.4615 0.3077 0.0769  plane waves:    2005
 k-point 47 :   0.3846 0.3846 0.0769  plane waves:    1996
 k-point 48 :   0.4615 0.3846 0.0769  plane waves:    2008
 k-point 49 :   0.4615 0.4615 0.0769  plane waves:    2008
 k-point 50 :   0.1538 0.1538 0.1538  plane waves:    1974
 k-point 51 :   0.2308 0.1538 0.1538  plane waves:    1985
 k-point 52 :   0.3077 0.1538 0.1538  plane waves:    1992
 k-point 53 :   0.3846 0.1538 0.1538  plane waves:    1994
 k-point 54 :   0.4615 0.1538 0.1538  plane waves:    1998
 k-point 55 :   0.2308 0.2308 0.1538  plane waves:    1986
 k-point 56 :   0.3077 0.2308 0.1538  plane waves:    1991
 k-point 57 :   0.3846 0.2308 0.1538  plane waves:    1995
 k-point 58 :   0.4615 0.2308 0.1538  plane waves:    2003
 k-point 59 :   0.3077 0.3077 0.1538  plane waves:    2000
 k-point 60 :   0.3846 0.3077 0.1538  plane waves:    2007
 k-point 61 :   0.4615 0.3077 0.1538  plane waves:    2008
 k-point 62 :   0.3846 0.3846 0.1538  plane waves:    2004
 k-point 63 :   0.4615 0.3846 0.1538  plane waves:    2008
 k-point 64 :   0.4615 0.4615 0.1538  plane waves:    2011
 k-point 65 :   0.2308 0.2308 0.2308  plane waves:    1995
 k-point 66 :   0.3077 0.2308 0.2308  plane waves:    1996
 k-point 67 :   0.3846 0.2308 0.2308  plane waves:    1998
 k-point 68 :   0.4615 0.2308 0.2308  plane waves:    1999
 k-point 69 :   0.3077 0.3077 0.2308  plane waves:    1996
 k-point 70 :   0.3846 0.3077 0.2308  plane waves:    2000
 k-point 71 :   0.4615 0.3077 0.2308  plane waves:    1995
 k-point 72 :   0.3846 0.3846 0.2308  plane waves:    2004
 k-point 73 :   0.4615 0.3846 0.2308  plane waves:    2013
 k-point 74 :   0.4615 0.4615 0.2308  plane waves:    2014
 k-point 75 :   0.3077 0.3077 0.3077  plane waves:    1986
 k-point 76 :   0.3846 0.3077 0.3077  plane waves:    2004
 k-point 77 :   0.4615 0.3077 0.3077  plane waves:    2002
 k-point 78 :   0.3846 0.3846 0.3077  plane waves:    1996
 k-point 79 :   0.4615 0.3846 0.3077  plane waves:    1987
 k-point 80 :   0.4615 0.4615 0.3077  plane waves:    1994
 k-point 81 :   0.3846 0.3846 0.3846  plane waves:    2004
 k-point 82 :   0.4615 0.3846 0.3846  plane waves:    1985
 k-point 83 :   0.4615 0.4615 0.3846  plane waves:    1978
 k-point 84 :   0.4615 0.4615 0.4615  plane waves:    1968

 maximum and minimum number of plane-waves per node :       348      317

 maximum number of plane-waves:      2014
 maximum index in each direction: 
   IXMAX=    7   IYMAX=    7   IZMAX=    7
   IXMIN=   -8   IYMIN=   -8   IZMIN=   -8

 WARNING: aliasing errors must be expected set NGX to  32 to avoid them
 WARNING: aliasing errors must be expected set NGY to  32 to avoid them
 WARNING: aliasing errors must be expected set NGZ to  32 to avoid them
 aliasing errors are usually negligible using standard VASP settings
 and one can safely disregard these warnings

 real space projection operators:
  total allocation   :       1656.56 KBytes
  max/ min on nodes  :        289.69        248.62


 parallel 3D FFT for wavefunctions:
    minimum data exchange during FFTs selected (reduces bandwidth)
 parallel 3D FFT for charge:
    minimum data exchange during FFTs selected (reduces bandwidth)


 total amount of memory used by VASP on root node    37768. kBytes
========================================================================

   base      :      30000. kBytes
   nonlr-proj:        562. kBytes
   fftplans  :        389. kBytes
   grid      :        548. kBytes
   one-center:         15. kBytes
   wavefun   :       6254. kBytes
 
     INWAV:  cpu time    0.00: real time    0.00
 Broyden mixing: mesh for mixing (old mesh)
   NGX = 15   NGY = 15   NGZ = 15
  (NGX  = 48   NGY  = 48   NGZ  = 48)
  gives a total of   3375 points

 initial charge density was supplied:
 charge density of overlapping atoms calculated
 number of electron      44.0000000 magnetization 
 keeping initial charge density in first step


--------------------------------------------------------------------------------------------------------


 Maximum index for non-local projection operator          515
 Maximum index for augmentation-charges          563 (set IRDMAX)


--------------------------------------------------------------------------------------------------------


 First call to EWALD:  gamma=   0.489
 Maximum number of real-space cells 3x 3x 3
 Maximum number of reciprocal cells 3x 3x 3

 FEWALD executed in parallel
    FEWALD:  cpu time    0.00: real time    0.00


----------------------------------------- Iteration    1(   1)  ---------------------------------------


    POTLOK:  cpu time    0.01: real time    0.01
    SETDIJ:  cpu time    0.00: real time    0.00
     EDDAV:  cpu time    2.23: real time    2.23
       DOS:  cpu time    0.02: real time    0.02
    --------------------------------------------
      LOOP:  cpu time    2.26: real time    2.27

 eigenvalue-minimisations  :  4512
 total energy-change (2. order) : 0.3617022E+03  (-0.2469100E+04)
 number of electron      44.0000000 magnetization 
 augmentation part       44.0000000 magnetization 

 Free energy of the ion-electron system (eV)
  ---------------------------------------------------
  alpha Z        PSCENC =       246.31741479
  Ewald energy   TEWEN  =     -4411.49058174
  -Hartree energ DENC   =     -1451.99225135
  -exchange      EXHF   =         0.00000000
  -V(xc)+E(xc)   XCENC  =       183.07853945
  PAW double counting   =      4912.82663951    -5336.19386850
  entropy T*S    EENTRO =         0.00066086
  eigenvalues    EBANDS =       655.23828034
  atomic energy  EATOM  =      5563.91739438
  ---------------------------------------------------
  free energy    TOTEN  =       361.70222774 eV

  energy without entropy =      361.70156688  energy(sigma->0) =      361.70200745


--------------------------------------------------------------------------------------------------------




----------------------------------------- Iteration    1(   2)  ---------------------------------------


     EDDAV:  cpu time    2.17: real time    2.17
       DOS:  cpu time    0.02: real time    0.02
    --------------------------------------------
      LOOP:  cpu time    2.19: real time    2.20

 eigenvalue-minimisations  :  4368
 total energy-change (2. order) :-0.3494367E+03  (-0.3435249E+03)
 number of electron      44.0000000 magnetization 
 augmentation part       44.0000000 magnetization 

 Free energy of the ion-electron system (eV)
  ---------------------------------------------------
  alpha Z        PSCENC =       246.31741479
  Ewald energy   TEWEN  =     -4411.49058174
  -Hartree energ DENC   =     -1451.99225135
  -exchange      EXHF   =         0.00000000
  -V(xc)+E(xc)   XCENC  =       183.07853945
  PAW double counting   =      4912.82663951    -5336.19386850
  entropy T*S    EENTRO =        -0.00008952
  eigenvalues    EBANDS =       305.80228860
  atomic energy  EATOM  =      5563.91739438
  ---------------------------------------------------
  free energy    TOTEN  =        12.26548563 eV

  energy without entropy =       12.26557515  energy(sigma->0) =       12.26551547


--------------------------------------------------------------------------------------------------------




----------------------------------------- Iteration    1(   3)  ---------------------------------------


     EDDAV:  cpu time    2.23: real time    2.24
       DOS:  cpu time    0.03: real time    0.03
    --------------------------------------------
      LOOP:  cpu time    2.26: real time    2.27

 eigenvalue-minimisations  :  4542
 total energy-change (2. order) :-0.3004840E+02  (-0.2868101E+02)
 number of electron      44.0000000 magnetization 
 augmentation part       44.0000000 magnetization 

 Free energy of the ion-electron system (eV)
  ---------------------------------------------------
  alpha Z        PSCENC =       246.31741479
  Ewald energy   TEWEN  =     -4411.49058174
  -Hartree energ DENC   =     -1451.99225135
  -exchange      EXHF   =         0.00000000
  -V(xc)+E(xc)   XCENC  =       183.07853945
  PAW double counting   =      4912.82663951    -5336.19386850
  entropy T*S    EENTRO =        -0.00111271
  eigenvalues    EBANDS =       275.75491550
  atomic energy  EATOM  =      5563.91739438
  ---------------------------------------------------
  free energy    TOTEN  =       -17.78291066 eV

  energy without entropy =      -17.78179795  energy(sigma->0) =      -17.78253976


--------------------------------------------------------------------------------------------------------




----------------------------------------- Iteration    1(   4)  ---------------------------------------


     EDDAV:  cpu time    2.41: real time    2.41
       DOS:  cpu time    0.03: real time    0.03
    --------------------------------------------
      LOOP:  cpu time    2.43: real time    2.44

 eigenvalue-minimisations  :  4968
 total energy-change (2. order) :-0.7217327E+00  (-0.7193048E+00)
 number of electron      44.0000000 magnetization 
 augmentation part       44.0000000 magnetization 

 Free energy of the ion-electron system (eV)
  ---------------------------------------------------
  alpha Z        PSCENC =       246.31741479
  Ewald energy   TEWEN  =     -4411.49058174
  -Hartree energ DENC   =     -1451.99225135
  -exchange      EXHF   =         0.00000000
  -V(xc)+E(xc)   XCENC  =       183.07853945
  PAW double counting   =      4912.82663951    -5336.19386850
  entropy T*S    EENTRO =        -0.00087437
  eigenvalues    EBANDS =       275.03294450
  atomic energy  EATOM  =      5563.91739438
  ---------------------------------------------------
  free energy    TOTEN  =       -18.50464333 eV

  energy without entropy =      -18.50376896  energy(sigma->0) =      -18.50435187


--------------------------------------------------------------------------------------------------------




----------------------------------------- Iteration    1(   5)  ---------------------------------------


     EDDAV:  cpu time    2.66: real time    2.66
       DOS:  cpu time    0.03: real time    0.03
    CHARGE:  cpu time    0.13: real time    0.13
    MIXING:  cpu time    0.00: real time    0.00
    --------------------------------------------
      LOOP:  cpu time    2.82: real time    2.83

 eigenvalue-minimisations  :  5594
 total energy-change (2. order) :-0.9681243E-02  (-0.9679387E-02)
 number of electron      43.9999915 magnetization 
 augmentation part       25.9493505 magnetization 

 Broyden mixing:
  rms(total) = 0.15343E+01    rms(broyden)= 0.15343E+01
  rms(prec ) = 0.35981E+01
  weight for this iteration     100.00

 Free energy of the ion-electron system (eV)
  ---------------------------------------------------
  alpha Z        PSCENC =       246.31741479
  Ewald energy   TEWEN  =     -4411.49058174
  -Hartree energ DENC   =     -1451.99225135
  -exchange      EXHF   =         0.00000000
  -V(xc)+E(xc)   XCENC  =       183.07853945
  PAW double counting   =      4912.82663951    -5336.19386850
  entropy T*S    EENTRO =        -0.00086167
  eigenvalues    EBANDS =       275.02325055
  atomic energy  EATOM  =      5563.91739438
  ---------------------------------------------------
  free energy    TOTEN  =       -18.51432457 eV

  energy without entropy =      -18.51346290  energy(sigma->0) =      -18.51403735


--------------------------------------------------------------------------------------------------------




----------------------------------------- Iteration    1(   6)  ---------------------------------------


    POTLOK:  cpu time    0.01: real time    0.01
    SETDIJ:  cpu time    0.00: real time    0.00
    EDDIAG:  cpu time    0.35: real time    0.35
  RMM-DIIS:  cpu time    1.24: real time    1.24
    ORTHCH:  cpu time    0.04: real time    0.04
       DOS:  cpu time    0.03: real time    0.03
    CHARGE:  cpu time    0.14: real time    0.14
    MIXING:  cpu time    0.00: real time    0.00
    --------------------------------------------
      LOOP:  cpu time    1.82: real time    1.83

 eigenvalue-minimisations  :  4381
 total energy-change (2. order) : 0.2197253E+01  (-0.4120244E+01)
 number of electron      43.9999904 magnetization 
 augmentation part       29.2831899 magnetization 

 Broyden mixing:
  rms(total) = 0.79496E+00    rms(broyden)= 0.79495E+00
  rms(prec ) = 0.16899E+01
  weight for this iteration     100.00

 eigenvalues of (default mixing * dielectric matrix)
  average eigenvalue GAMMA=   0.6599
  0.6599

 Free energy of the ion-electron system (eV)
  ---------------------------------------------------
  alpha Z        PSCENC =       246.31741479
  Ewald energy   TEWEN  =     -4411.49058174
  -Hartree energ DENC   =     -1340.07284926
  -exchange      EXHF   =         0.00000000
  -V(xc)+E(xc)   XCENC  =       177.52054006
  PAW double counting   =      4988.09136752    -5389.31755314
  entropy T*S    EENTRO =         0.00045805
  eigenvalues    EBANDS =       148.71673786
  atomic energy  EATOM  =      5563.91739438
  ---------------------------------------------------
  free energy    TOTEN  =       -16.31707148 eV

  energy without entropy =      -16.31752953  energy(sigma->0) =      -16.31722416


--------------------------------------------------------------------------------------------------------




----------------------------------------- Iteration    1(   7)  ---------------------------------------


    POTLOK:  cpu time    0.01: real time    0.01
    SETDIJ:  cpu time    0.00: real time    0.00
    EDDIAG:  cpu time    0.35: real time    0.35
  RMM-DIIS:  cpu time    1.24: real time    1.25
    ORTHCH:  cpu time    0.04: real time    0.04
       DOS:  cpu time    0.03: real time    0.03
    CHARGE:  cpu time    0.13: real time    0.13
    MIXING:  cpu time    0.00: real time    0.00
    --------------------------------------------
      LOOP:  cpu time    1.81: real time    1.82

 eigenvalue-minimisations  :  4387
 total energy-change (2. order) : 0.1366677E+01  (-0.7162690E+00)
 number of electron      43.9999908 magnetization 
 augmentation part       27.9512333 magnetization 

 Broyden mixing:
  rms(total) = 0.12268E+00    rms(broyden)= 0.12267E+00
  rms(prec ) = 0.30845E+00
  weight for this iteration     100.00

 eigenvalues of (default mixing * dielectric matrix)
  average eigenvalue GAMMA=   1.2513
  1.8735  0.6291

 Free energy of the ion-electron system (eV)
  ---------------------------------------------------
  alpha Z        PSCENC =       246.31741479
  Ewald energy   TEWEN  =     -4411.49058174
  -Hartree energ DENC   =     -1374.06368108
  -exchange      EXHF   =         0.00000000
  -V(xc)+E(xc)   XCENC  =       179.31420718
  PAW double counting   =      5092.97265345    -5513.80667869
  entropy T*S    EENTRO =        -0.00048541
  eigenvalues    EBANDS =       201.88936266
  atomic energy  EATOM  =      5563.91739438
  ---------------------------------------------------
  free energy    TOTEN  =       -14.95039446 eV

  energy without entropy =      -14.94990905  energy(sigma->0) =      -14.95023266


--------------------------------------------------------------------------------------------------------




----------------------------------------- Iteration    1(   8)  ---------------------------------------


    POTLOK:  cpu time    0.01: real time    0.01
    SETDIJ:  cpu time    0.00: real time    0.00
    EDDIAG:  cpu time    0.36: real time    0.36
  RMM-DIIS:  cpu time    1.29: real time    1.30
    ORTHCH:  cpu time    0.04: real time    0.04
       DOS:  cpu time    0.03: real time    0.03
    CHARGE:  cpu time    0.13: real time    0.13
    MIXING:  cpu time    0.00: real time    0.00
    --------------------------------------------
      LOOP:  cpu time    1.87: real time    1.88

 eigenvalue-minimisations  :  4544
 total energy-change (2. order) : 0.3582421E-01  (-0.4399857E-02)
 number of electron      43.9999908 magnetization 
 augmentation part       27.9933739 magnetization 

 Broyden mixing:
  rms(total) = 0.45756E-01    rms(broyden)= 0.45755E-01
  rms(prec ) = 0.11257E+00
  weight for this iteration     100.00

 eigenvalues of (default mixing * dielectric matrix)
  average eigenvalue GAMMA=   1.3510
  0.6413  1.0246  2.3872

 Free energy of the ion-electron system (eV)
  ---------------------------------------------------
  alpha Z        PSCENC =       246.31741479
  Ewald energy   TEWEN  =     -4411.49058174
  -Hartree energ DENC   =     -1362.98304500
  -exchange      EXHF   =         0.00000000
  -V(xc)+E(xc)   XCENC  =       178.84148510
  PAW double counting   =      5218.28122048    -5647.88176791
  entropy T*S    EENTRO =        -0.00042611
  eigenvalues    EBANDS =       200.08373575
  atomic energy  EATOM  =      5563.91739438
  ---------------------------------------------------
  free energy    TOTEN  =       -14.91457025 eV

  energy without entropy =      -14.91414414  energy(sigma->0) =      -14.91442821


--------------------------------------------------------------------------------------------------------




----------------------------------------- Iteration    1(   9)  ---------------------------------------


    POTLOK:  cpu time    0.01: real time    0.01
    SETDIJ:  cpu time    0.00: real time    0.00
    EDDIAG:  cpu time    0.36: real time    0.36
  RMM-DIIS:  cpu time    1.29: real time    1.29
    ORTHCH:  cpu time    0.04: real time    0.04
       DOS:  cpu time    0.03: real time    0.03
    CHARGE:  cpu time    0.13: real time    0.13
    MIXING:  cpu time    0.00: real time    0.00
    --------------------------------------------
      LOOP:  cpu time    1.87: real time    1.87

 eigenvalue-minimisations  :  4581
 total energy-change (2. order) : 0.3909949E-02  (-0.1200521E-02)
 number of electron      43.9999908 magnetization 
 augmentation part       28.0456735 magnetization 

 Broyden mixing:
  rms(total) = 0.29665E-02    rms(broyden)= 0.29659E-02
  rms(prec ) = 0.45246E-02
  weight for this iteration     100.00

 eigenvalues of (default mixing * dielectric matrix)
  average eigenvalue GAMMA=   1.6124
  2.9933  0.6434  0.9059  1.9070

 Free energy of the ion-electron system (eV)
  ---------------------------------------------------
  alpha Z        PSCENC =       246.31741479
  Ewald energy   TEWEN  =     -4411.49058174
  -Hartree energ DENC   =     -1358.57481806
  -exchange      EXHF   =         0.00000000
  -V(xc)+E(xc)   XCENC  =       178.64306962
  PAW double counting   =      5258.44743685    -5690.02994209
  entropy T*S    EENTRO =        -0.00030819
  eigenvalues    EBANDS =       197.85967413
  atomic energy  EATOM  =      5563.91739438
  ---------------------------------------------------
  free energy    TOTEN  =       -14.91066030 eV

  energy without entropy =      -14.91035211  energy(sigma->0) =      -14.91055757


--------------------------------------------------------------------------------------------------------




----------------------------------------- Iteration    1(  10)  ---------------------------------------


    POTLOK:  cpu time    0.01: real time    0.01
    SETDIJ:  cpu time    0.00: real time    0.00
    EDDIAG:  cpu time    0.35: real time    0.35
  RMM-DIIS:  cpu time    1.27: real time    1.27
    ORTHCH:  cpu time    0.04: real time    0.04
       DOS:  cpu time    0.03: real time    0.03
    CHARGE:  cpu time    0.13: real time    0.13
    MIXING:  cpu time    0.00: real time    0.00
    --------------------------------------------
      LOOP:  cpu time    1.84: real time    1.84

 eigenvalue-minimisations  :  4496
 total energy-change (2. order) :-0.1900031E-03  (-0.1272935E-03)
 number of electron      43.9999908 magnetization 
 augmentation part       28.0496065 magnetization 

 Broyden mixing:
  rms(total) = 0.39502E-02    rms(broyden)= 0.39501E-02
  rms(prec ) = 0.92406E-02
  weight for this iteration     100.00

 eigenvalues of (default mixing * dielectric matrix)
  average eigenvalue GAMMA=   1.5464
  0.6413  0.9802  0.9802  2.7264  2.4036

 Free energy of the ion-electron system (eV)
  ---------------------------------------------------
  alpha Z        PSCENC =       246.31741479
  Ewald energy   TEWEN  =     -4411.49058174
  -Hartree energ DENC   =     -1358.54511002
  -exchange      EXHF   =         0.00000000
  -V(xc)+E(xc)   XCENC  =       178.64104845
  PAW double counting   =      5261.12015237    -5692.63371345
  entropy T*S    EENTRO =        -0.00030237
  eigenvalues    EBANDS =       197.76284730
  atomic energy  EATOM  =      5563.91739438
  ---------------------------------------------------
  free energy    TOTEN  =       -14.91085031 eV

  energy without entropy =      -14.91054793  energy(sigma->0) =      -14.91074951


--------------------------------------------------------------------------------------------------------




----------------------------------------- Iteration    1(  11)  ---------------------------------------


    POTLOK:  cpu time    0.01: real time    0.01
    SETDIJ:  cpu time    0.00: real time    0.00
    EDDIAG:  cpu time    0.35: real time    0.35
  RMM-DIIS:  cpu time    1.06: real time    1.06
    ORTHCH:  cpu time    0.04: real time    0.04
       DOS:  cpu time    0.03: real time    0.03
    CHARGE:  cpu time    0.14: real time    0.14
    MIXING:  cpu time    0.00: real time    0.00
    --------------------------------------------
      LOOP:  cpu time    1.64: real time    1.64

 eigenvalue-minimisations  :  3727
 total energy-change (2. order) : 0.2324230E-04  (-0.9281364E-05)
 number of electron      43.9999908 magnetization 
 augmentation part       28.0458239 magnetization 

 Broyden mixing:
  rms(total) = 0.57003E-03    rms(broyden)= 0.56999E-03
  rms(prec ) = 0.12508E-02
  weight for this iteration     100.00

 eigenvalues of (default mixing * dielectric matrix)
  average eigenvalue GAMMA=   1.5055
  2.6559  2.2860  0.6416  0.9426  1.0012  1.5056

 Free energy of the ion-electron system (eV)
  ---------------------------------------------------
  alpha Z        PSCENC =       246.31741479
  Ewald energy   TEWEN  =     -4411.49058174
  -Hartree energ DENC   =     -1359.01819249
  -exchange      EXHF   =         0.00000000
  -V(xc)+E(xc)   XCENC  =       178.66174285
  PAW double counting   =      5259.49049546    -5690.80287840
  entropy T*S    EENTRO =        -0.00031667
  eigenvalues    EBANDS =       198.01409475
  atomic energy  EATOM  =      5563.91739438
  ---------------------------------------------------
  free energy    TOTEN  =       -14.91082706 eV

  energy without entropy =      -14.91051040  energy(sigma->0) =      -14.91072151


--------------------------------------------------------------------------------------------------------




----------------------------------------- Iteration    1(  12)  ---------------------------------------


    POTLOK:  cpu time    0.01: real time    0.01
    SETDIJ:  cpu time    0.00: real time    0.00
    EDDIAG:  cpu time    0.35: real time    0.35
  RMM-DIIS:  cpu time    0.73: real time    0.74
    ORTHCH:  cpu time    0.04: real time    0.04
       DOS:  cpu time    0.03: real time    0.03
    --------------------------------------------
      LOOP:  cpu time    1.17: real time    1.18

 eigenvalue-minimisations  :  2393
 total energy-change (2. order) :-0.6726797E-05  (-0.7041113E-06)
 number of electron      43.9999908 magnetization 
 augmentation part       28.0458239 magnetization 

 Free energy of the ion-electron system (eV)
  ---------------------------------------------------
  alpha Z        PSCENC =       246.31741479
  Ewald energy   TEWEN  =     -4411.49058174
  -Hartree energ DENC   =     -1358.90612619
  -exchange      EXHF   =         0.00000000
  -V(xc)+E(xc)   XCENC  =       178.65705383
  PAW double counting   =      5260.60896083    -5692.03099668
  entropy T*S    EENTRO =        -0.00031690
  eigenvalues    EBANDS =       198.01636388
  atomic energy  EATOM  =      5563.91739438
  ---------------------------------------------------
  free energy    TOTEN  =       -14.91083379 eV

  energy without entropy =      -14.91051689  energy(sigma->0) =      -14.91072816


--------------------------------------------------------------------------------------------------------




 average (electrostatic) potential at core
  the test charge radii are     0.9430
  (the norm of the test charge is              1.0000)
       1 -63.7521       2 -63.7521       3 -63.7521       4 -63.7521
 
 
 
 E-fermi :   7.5373     XC(G=0): -12.6930     alpha+bet :-13.3497


 k-point     1 :       0.0000    0.0000    0.0000
  band No.  band energies     occupation 
      1      -1.7922      2.00000
      2       2.6743      2.00000
      3       2.6743      2.00000
      4       2.6743      2.00000
      5       3.1268      2.00000
      6       3.1268      2.00000
      7       3.1268      2.00000
      8       4.5081      2.00000
      9       4.5081      2.00000
     10       4.5081      2.00000
     11       5.3285      2.00000
     12       5.3285      2.00000
     13       5.8740      2.00000
     14       5.8740      2.00000
     15       5.8740      2.00000
     16       6.0283      2.00000
     17       6.0283      2.00000
     18       6.0283      2.00000
     19       6.0283      2.00000
     20       6.0283      2.00000
     21       6.0283      2.00000
     22       9.0196     -0.00000
     23       9.0196     -0.00000
     24       9.0196     -0.00000
     25      14.5921      0.00000
     26      14.5920      0.00000

 k-point     2 :       0.0769    0.0000    0.0000
  band No.  band energies     occupation 
      1      -1.7205      2.00000
      2       2.6735      2.00000
      3       2.7077      2.00000
      4       2.7077      2.00000
      5       3.1458      2.00000
      6       3.1469      2.00000
      7       3.1469      2.00000
      8       4.4869      2.00000
      9       4.5250      2.00000
     10       4.5250      2.00000
     11       5.3093      2.00000
     12       5.3362      2.00000
     13       5.8491      2.00000
     14       5.8491      2.00000
     15       5.8659      2.00000
     16       5.9014      2.00000
     17       5.9014      2.00000
     18       5.9989      2.00000
     19       5.9989      2.00000
     20       6.0284      2.00000
     21       6.0284      2.00000
     22       8.5717     -0.00000
     23       9.2108     -0.00000
     24       9.2108     -0.00000
     25      14.6177      0.00000
     26      14.6251      0.00000

 k-point     3 :       0.1538    0.0000    0.0000
  band No.  band energies     occupation 
      1      -1.5066      2.00000
      2       2.6591      2.00000
      3       2.8040      2.00000
      4       2.8040      2.00000
      5       3.2018      2.00000
      6       3.2072      2.00000
      7       3.2072      2.00000
      8       4.4247      2.00000
      9       4.5754      2.00000
     10       4.5754      2.00000
     11       5.2534      2.00000
     12       5.3590      2.00000
     13       5.5927      2.00000
     14       5.5927      2.00000
     15       5.7765      2.00000
     16       5.7765      2.00000
     17       5.8421      2.00000
     18       5.9142      2.00000
     19       5.9142      2.00000
     20       6.0285      2.00000
     21       6.0285      2.00000
     22       7.5943      0.18700
     23       9.7116     -0.00000
     24       9.7116     -0.00000
     25      14.6971      0.00000
     26      14.6960      0.00000

 k-point     4 :       0.2308    0.0000    0.0000
  band No.  band energies     occupation 
      1      -1.1548      2.00000
      2       2.5898      2.00000
      3       2.9507      2.00000
      4       2.9507      2.00000
      5       3.2921      2.00000
      6       3.3088      2.00000
      7       3.3088      2.00000
      8       4.3256      2.00000
      9       4.6582      2.00000
     10       4.6582      2.00000
     11       5.1669      2.00000
     12       5.2139      2.00000
     13       5.2139      2.00000
     14       5.3956      2.00000
     15       5.6629      2.00000
     16       5.6629      2.00000
     17       5.7837      2.00000
     18       5.7837      2.00000
     19       5.8040      2.00000
     20       6.0287      2.00000
     21       6.0287      2.00000
     22       6.5440      2.00000
     23      10.4095      0.00000
     24      10.4095      0.00000
     25      14.8362      0.00000
     26      14.8355      0.00000

 k-point     5 :       0.3077    0.0000    0.0000
  band No.  band energies     occupation 
      1      -0.6732      2.00000
      2       2.3833      2.00000
      3       3.1248      2.00000
      4       3.1248      2.00000
      5       3.4120      2.00000
      6       3.4528      2.00000
      7       3.4528      2.00000
      8       4.1963      2.00000
      9       4.7714      2.00000
     10       4.7714      2.00000
     11       4.8303      2.00000
     12       4.8303      2.00000
     13       5.0610      2.00000
     14       5.4441      2.00000
     15       5.5238      2.00000
     16       5.5238      2.00000
     17       5.6207      2.00000
     18       5.6207      2.00000
     19       5.6719      2.00000
     20       5.7539      2.00000
     21       6.0289      2.00000
     22       6.0289      2.00000
     23      11.2373      0.00000
     24      11.2373      0.00000
     25      15.0393      0.00000
     26      15.0367      0.00000

 k-point     6 :       0.3846    0.0000    0.0000
  band No.  band energies     occupation 
      1      -0.0772      2.00000
      2       1.9511      2.00000
      3       3.2893      2.00000
      4       3.2893      2.00000
      5       3.5556      2.00000
      6       3.6406      2.00000
      7       3.6406      2.00000
      8       4.0451      2.00000
      9       4.4715      2.00000
     10       4.4715      2.00000
     11       4.9119      2.00000
     12       4.9119      2.00000
     13       4.9549      2.00000
     14       5.1259      2.00000
     15       5.3881      2.00000
     16       5.3881      2.00000
     17       5.4396      2.00000
     18       5.4396      2.00000
     19       5.5017      2.00000
     20       5.6951      2.00000
     21       6.0290      2.00000
     22       6.0290      2.00000
     23      12.1626      0.00000
     24      12.1626      0.00000
     25      15.3043      0.00000
     26      15.3001      0.00000

 k-point     7 :       0.4615    0.0000    0.0000
  band No.  band energies     occupation 
      1       0.6049      2.00000
      2       1.3161      2.00000
      3       3.3938      2.00000
      4       3.3938      2.00000
      5       3.7149      2.00000
      6       3.8731      2.00000
      7       3.8731      2.00000
      8       3.8813      2.00000
      9       4.1507      2.00000
     10       4.1507      2.00000
     11       4.8820      2.00000
     12       4.9033      2.00000
     13       5.0750      2.00000
     14       5.0750      2.00000
     15       5.2539      2.00000
     16       5.2539      2.00000
     17       5.2997      2.00000
     18       5.2997      2.00000
     19       5.5651      2.00000
     20       5.6309      2.00000
     21       6.0291      2.00000
     22       6.0291      2.00000
     23      13.1690      0.00000
     24      13.1690      0.00000
     25      14.2445      0.00000
     26      14.2444      0.00000

 k-point     8 :       0.0769    0.0769    0.0000
  band No.  band energies     occupation 
      1      -1.6490      2.00000
      2       2.7076      2.00000
      3       2.7076      2.00000
      4       2.7405      2.00000
      5       3.1655      2.00000
      6       3.1655      2.00000
      7       3.1663      2.00000
      8       4.4749      2.00000
      9       4.5331      2.00000
     10       4.5405      2.00000
     11       5.3039      2.00000
     12       5.3315      2.00000
     13       5.8060      2.00000
     14       5.8188      2.00000
     15       5.8188      2.00000
     16       5.8252      2.00000
     17       5.8885      2.00000
     18       5.8885      2.00000
     19       5.9989      2.00000
     20       5.9989      2.00000
     21       6.0095      2.00000
     22       8.7603     -0.00000
     23       8.7603     -0.00000
     24       9.3893     -0.00000
     25      14.6437      0.00000
     26      15.1976      0.00000

 k-point     9 :       0.1538    0.0769    0.0000
  band No.  band energies     occupation 
      1      -1.4359      2.00000
      2       2.6953      2.00000
      3       2.8059      2.00000
      4       2.8348      2.00000
      5       3.2206      2.00000
      6       3.2249      2.00000
      7       3.2249      2.00000
      8       4.4186      2.00000
      9       4.5786      2.00000
     10       4.5863      2.00000
     11       5.2552      2.00000
     12       5.3519      2.00000
     13       5.5318      2.00000
     14       5.5350      2.00000
     15       5.7203      2.00000
     16       5.7551      2.00000
     17       5.7846      2.00000
     18       5.8567      2.00000
     19       5.9140      2.00000
     20       5.9988      2.00000
     21       5.9993      2.00000
     22       7.7942     -0.00169
     23       9.2425     -0.00000
     24       9.8663     -0.00000
     25      14.7225      0.00000
     26      15.2942      0.00000

 k-point    10 :       0.2308    0.0769    0.0000
  band No.  band energies     occupation 
      1      -1.0855      2.00000
      2       2.6297      2.00000
      3       2.9561      2.00000
      4       2.9788      2.00000
      5       3.3093      2.00000
      6       3.3229      2.00000
      7       3.3249      2.00000
      8       4.3228      2.00000
      9       4.6599      2.00000
     10       4.6600      2.00000
     11       5.1578      2.00000
     12       5.1744      2.00000
     13       5.1769      2.00000
     14       5.3920      2.00000
     15       5.5433      2.00000
     16       5.6454      2.00000
     17       5.6697      2.00000
     18       5.7833      2.00000
     19       5.8072      2.00000
     20       5.9969      2.00000
     21       5.9987      2.00000
     22       6.7958      2.00000
     23       9.8965     -0.00000
     24      10.5433      0.00000
     25      14.8563      0.00000
     26      15.4465      0.00000

 k-point    11 :       0.3077    0.0769    0.0000
  band No.  band energies     occupation 
      1      -0.6060      2.00000
      2       2.4282      2.00000
      3       3.1349      2.00000
      4       3.1508      2.00000
      5       3.4272      2.00000
      6       3.4601      2.00000
      7       3.4664      2.00000
      8       4.1965      2.00000
      9       4.7523      2.00000
     10       4.7724      2.00000
     11       4.7791      2.00000
     12       4.8098      2.00000
     13       5.0838      2.00000
     14       5.2637      2.00000
     15       5.4461      2.00000
     16       5.5108      2.00000
     17       5.5308      2.00000
     18       5.6202      2.00000
     19       5.7270      2.00000
     20       5.9965      2.00000
     21       5.9984      2.00000
     22       6.0671      2.00000
     23      10.6554      0.00000
     24      11.3557      0.00000
     25      15.0030      0.00000
     26      15.3655      0.00000

 k-point    12 :       0.3846    0.0769    0.0000
  band No.  band energies     occupation 
      1      -0.0127      2.00000
      2       2.0015      2.00000
      3       3.3057      2.00000
      4       3.3159      2.00000
      5       3.5682      2.00000
      6       3.6354      2.00000
      7       3.6508      2.00000
      8       4.0484      2.00000
      9       4.4279      2.00000
     10       4.4626      2.00000
     11       4.8186      2.00000
     12       4.9124      2.00000
     13       4.9578      2.00000
     14       5.0449      2.00000
     15       5.3799      2.00000
     16       5.3940      2.00000
     17       5.4392      2.00000
     18       5.5108      2.00000
     19       5.5451      2.00000
     20       5.7667      2.00000
     21       5.9967      2.00000
     22       5.9981      2.00000
     23      11.4888      0.00000
     24      12.2701      0.00000
     25      14.3310      0.00000
     26      15.3708      0.00000

 k-point    13 :       0.4615    0.0769    0.0000
  band No.  band energies     occupation 
      1       0.6655      2.00000
      2       1.3718      2.00000
      3       3.4169      2.00000
      4       3.4211      2.00000
      5       3.7247      2.00000
      6       3.8524      2.00000
      7       3.8788      2.00000
      8       3.8879      2.00000
      9       4.1169      2.00000
     10       4.1502      2.00000
     11       4.7991      2.00000
     12       4.8075      2.00000
     13       5.0750      2.00000
     14       5.1458      2.00000
     15       5.2536      2.00000
     16       5.2970      2.00000
     17       5.3023      2.00000
     18       5.3244      2.00000
     19       5.5836      2.00000
     20       5.6636      2.00000
     21       5.9972      2.00000
     22       5.9977      2.00000
     23      12.3832      0.00000
     24      13.2686      0.00000
     25      13.3338      0.00000
     26      14.3377      0.00000

 k-point    14 :       0.1538    0.1538    0.0000
  band No.  band energies     occupation 
      1      -1.2252      2.00000
      2       2.8001      2.00000
      3       2.8001      2.00000
      4       2.9234      2.00000
      5       3.2771      2.00000
      6       3.2771      2.00000
      7       3.2779      2.00000
      8       4.3837      2.00000
      9       4.6060      2.00000
     10       4.6180      2.00000
     11       5.2372      2.00000
     12       5.3437      2.00000
     13       5.3556      2.00000
     14       5.3879      2.00000
     15       5.3879      2.00000
     16       5.6923      2.00000
     17       5.7814      2.00000
     18       5.7814      2.00000
     19       5.9135      2.00000
     20       5.9135      2.00000
     21       5.9536      2.00000
     22       8.2655     -0.00000
     23       8.2655     -0.00000
     24      10.2934      0.00000
     25      14.7969      0.00000
     26      14.7092      0.00000

 k-point    15 :       0.2308    0.1538    0.0000
  band No.  band energies     occupation 
      1      -0.8790      2.00000
      2       2.7454      2.00000
      3       2.9608      2.00000
      4       3.0589      2.00000
      5       3.3612      2.00000
      6       3.3658      2.00000
      7       3.3721      2.00000
      8       4.3056      2.00000
      9       4.6665      2.00000
     10       4.6748      2.00000
     11       5.0094      2.00000
     12       5.0623      2.00000
     13       5.1716      2.00000
     14       5.1782      2.00000
     15       5.3993      2.00000
     16       5.5932      2.00000
     17       5.6718      2.00000
     18       5.7452      2.00000
     19       5.7823      2.00000
     20       5.9126      2.00000
     21       5.9271      2.00000
     22       7.2758      2.00137
     23       8.8662     -0.00000
     24      10.9223      0.00000
     25      14.8270      0.00000
     26      15.2654      0.00000

 k-point    16 :       0.3077    0.1538    0.0000
  band No.  band energies     occupation 
      1      -0.4058      2.00000
      2       2.5585      2.00000
      3       3.1546      2.00000
      4       3.2238      2.00000
      5       3.4728      2.00000
      6       3.4838      2.00000
      7       3.5064      2.00000
      8       4.1926      2.00000
      9       4.6443      2.00000
     10       4.7154      2.00000
     11       4.7463      2.00000
     12       4.7806      2.00000
     13       4.9147      2.00000
     14       5.1144      2.00000
     15       5.4704      2.00000
     16       5.4710      2.00000
     17       5.5365      2.00000
     18       5.6190      2.00000
     19       5.6669      2.00000
     20       5.9115      2.00000
     21       5.9153      2.00000
     22       6.5129      2.00000
     23       9.5436     -0.00000
     24      11.6967      0.00000
     25      13.9732      0.00000
     26      15.2366      0.00000

 k-point    17 :       0.3846    0.1538    0.0000
  band No.  band energies     occupation 
      1       0.1785      2.00000
      2       2.1482      2.00000
      3       3.3450      2.00000
      4       3.3912      2.00000
      5       3.6059      2.00000
      6       3.6225      2.00000
      7       3.6806      2.00000
      8       4.0561      2.00000
      9       4.3131      2.00000
     10       4.4348      2.00000
     11       4.7132      2.00000
     12       4.7228      2.00000
     13       4.9166      2.00000
     14       5.1100      2.00000
     15       5.3534      2.00000
     16       5.3998      2.00000
[...]
     24       8.1603     -0.00000
     25      12.9567      0.00000
     26      12.9567      0.00000

 k-point    76 :       0.3846    0.3077    0.3077
  band No.  band energies     occupation 
      1       1.6022      2.00000
      2       2.7257      2.00000
      3       2.9753      2.00000
      4       2.9753      2.00000
      5       4.0829      2.00000
      6       4.0829      2.00000
      7       4.1599      2.00000
      8       4.4616      2.00000
      9       4.5194      2.00000
     10       4.5750      2.00000
     11       4.5895      2.00000
     12       4.5895      2.00000
     13       4.6102      2.00000
     14       4.7841      2.00000
     15       4.8238      2.00000
     16       4.8238      2.00000
     17       5.6224      2.00000
     18       5.6795      2.00000
     19       5.8856      2.00000
     20       5.8856      2.00000
     21       5.9053      2.00000
     22       7.1881      2.00001
     23       8.4561     -0.00000
     24       8.4561     -0.00000
     25      12.0942      0.00000
     26      12.0943      0.00000

 k-point    77 :       0.4615    0.3077    0.3077
  band No.  band energies     occupation 
      1       2.0123      2.00000
      2       2.3956      2.00000
      3       2.9644      2.00000
      4       2.9644      2.00000
      5       4.1297      2.00000
      6       4.1297      2.00000
      7       4.3322      2.00000
      8       4.4664      2.00000
      9       4.5329      2.00000
     10       4.5329      2.00000
     11       4.6366      2.00000
     12       4.6669      2.00000
     13       4.6669      2.00000
     14       4.6956      2.00000
     15       4.7827      2.00000
     16       4.7827      2.00000
     17       5.7845      2.00000
     18       5.8537      2.00000
     19       5.8537      2.00000
     20       5.8614      2.00000
     21       5.8946      2.00000
     22       6.4213      2.00000
     23       8.6767     -0.00000
     24       8.6767     -0.00000
     25      11.5849      0.00000
     26      11.5849      0.00000

 k-point    78 :       0.3846    0.3846    0.3077
  band No.  band energies     occupation 
      1       1.9076      2.00000
      2       2.7452      2.00000
      3       2.7452      2.00000
      4       2.8898      2.00000
      5       4.1823      2.00000
      6       4.2444      2.00000
      7       4.2444      2.00000
      8       4.5534      2.00000
      9       4.5747      2.00000
     10       4.6687      2.00000
     11       4.6687      2.00000
     12       4.6737      2.00000
     13       4.7303      2.00000
     14       4.7303      2.00000
     15       4.7336      2.00000
     16       4.7499      2.00000
     17       5.6338      2.00000
     18       5.8220      2.00000
     19       5.8716      2.00000
     20       5.8834      2.00000
     21       5.8834      2.00000
     22       7.4723      1.88215
     23       7.4723      1.88215
     24       8.4377     -0.00000
     25      11.5303      0.00000
     26      12.6154      0.00000

 k-point    79 :       0.4615    0.3846    0.3077
  band No.  band energies     occupation 
      1       2.2098      2.00000
      2       2.4906      2.00000
      3       2.7754      2.00000
      4       2.8227      2.00000
      5       4.2450      2.00000
      6       4.2666      2.00000
      7       4.3865      2.00000
      8       4.4905      2.00000
      9       4.5860      2.00000
     10       4.6316      2.00000
     11       4.6764      2.00000
     12       4.6847      2.00000
     13       4.7682      2.00000
     14       4.7899      2.00000
     15       4.8313      2.00000
     16       4.8512      2.00000
     17       5.7321      2.00000
     18       5.8352      2.00000
     19       5.8434      2.00000
     20       5.8459      2.00000
     21       6.0970      2.00000
     22       6.6553      2.00000
     23       7.8326     -0.00024
     24       8.2015     -0.00000
     25      11.4849      0.00000
     26      11.8933      0.00000

 k-point    80 :       0.4615    0.4615    0.3077
  band No.  band energies     occupation 
      1       2.4024      2.00000
      2       2.5894      2.00000
      3       2.5894      2.00000
      4       2.6983      2.00000
      5       4.3329      2.00000
      6       4.3806      2.00000
      7       4.3806      2.00000
      8       4.4584      2.00000
      9       4.5717      2.00000
     10       4.6059      2.00000
     11       4.6059      2.00000
     12       4.6232      2.00000
     13       4.9592      2.00000
     14       4.9592      2.00000
     15       4.9769      2.00000
     16       4.9782      2.00000
     17       5.7217      2.00000
     18       5.7914      2.00000
     19       5.7914      2.00000
     20       5.8046      2.00000
     21       6.4588      2.00000
     22       7.0476      2.00000
     23       7.0476      2.00000
     24       7.5909      0.22113
     25      11.8320      0.00000
     26      12.4596      0.00000

 k-point    81 :       0.3846    0.3846    0.3846
  band No.  band energies     occupation 
      1       2.1083      2.00000
      2       2.6941      2.00000
      3       2.6941      2.00000
      4       2.6941      2.00000
      5       4.3133      2.00000
      6       4.3133      2.00000
      7       4.3133      2.00000
      8       4.5372      2.00000
      9       4.5372      2.00000
     10       4.6368      2.00000
     11       4.6368      2.00000
     12       4.6368      2.00000
     13       4.9329      2.00000
     14       4.9329      2.00000
     15       4.9329      2.00000
     16       5.0561      2.00000
     17       5.7501      2.00000
     18       5.7501      2.00000
     19       5.8984      2.00000
     20       5.8984      2.00000
     21       5.8984      2.00000
     22       7.5568      0.67640
     23       7.5568      0.67640
     24       7.5568      0.67640
     25      11.8253      0.00000
     26      11.8253      0.00000

 k-point    82 :       0.4615    0.3846    0.3846
  band No.  band energies     occupation 
      1       2.3064      2.00000
      2       2.5005      2.00000
      3       2.6668      2.00000
      4       2.6668      2.00000
      5       4.3492      2.00000
      6       4.3492      2.00000
      7       4.4202      2.00000
      8       4.4946      2.00000
      9       4.5354      2.00000
     10       4.5693      2.00000
     11       4.5945      2.00000
     12       4.5945      2.00000
     13       5.1083      2.00000
     14       5.1083      2.00000
     15       5.1118      2.00000
     16       5.2311      2.00000
     17       5.8362      2.00000
     18       5.8780      2.00000
     19       5.8780      2.00000
     20       5.8867      2.00000
     21       6.0146      2.00000
     22       6.7029      2.00000
     23       7.6201      0.00608
     24       7.6201      0.00608
     25      11.3906      0.00000
     26      11.3906      0.00000

 k-point    83 :       0.4615    0.4615    0.3846
  band No.  band energies     occupation 
      1       2.4114      2.00000
      2       2.5301      2.00000
      3       2.5301      2.00000
      4       2.5847      2.00000
      5       4.4075      2.00000
      6       4.4309      2.00000
      7       4.4309      2.00000
      8       4.4832      2.00000
      9       4.5108      2.00000
     10       4.5349      2.00000
     11       4.5349      2.00000
     12       4.5432      2.00000
     13       5.3268      2.00000
     14       5.3501      2.00000
     15       5.3501      2.00000
     16       5.4914      2.00000
     17       5.8150      2.00000
     18       5.8659      2.00000
     19       5.8659      2.00000
     20       5.8666      2.00000
     21       6.2899      2.00000
     22       6.9116      2.00000
     23       6.9116      2.00000
     24       7.2673      2.00091
     25      11.3497      0.00000
     26      11.7081      0.00000

 k-point    84 :       0.4615    0.4615    0.4615
  band No.  band energies     occupation 
      1       2.4418      2.00000
      2       2.4988      2.00000
      3       2.4988      2.00000
      4       2.4988      2.00000
      5       4.4600      2.00000
      6       4.4600      2.00000
      7       4.4600      2.00000
      8       4.4852      2.00000
      9       4.4852      2.00000
     10       4.4962      2.00000
     11       4.4962      2.00000
     12       4.4962      2.00000
     13       5.6586      2.00000
     14       5.6586      2.00000
     15       5.6586      2.00000
     16       5.8725      2.00000
     17       5.8725      2.00000
     18       5.8900      2.00000
     19       5.8900      2.00000
     20       5.8900      2.00000
     21       6.2592      2.00000
     22       6.7707      2.00000
     23       6.7707      2.00000
     24       6.7707      2.00000
     25      11.3068      0.00000
     26      11.3068      0.00000


--------------------------------------------------------------------------------------------------------


 soft charge-density along one line, spin component           1
         0         1         2         3         4         5         6         7         8         9
 total charge-density along one line
 
 pseudopotential strength for first ion, spin component:           1
 -2.945   0.000  -0.000   0.000   0.000  -4.685  -0.000   0.000
  0.000  -2.945   0.000   0.000  -0.000  -0.000  -4.685  -0.000
 -0.000   0.000  -2.929   0.000   0.000   0.000  -0.000  -4.697
  0.000   0.000   0.000  -2.945   0.000  -0.000  -0.000  -0.000
  0.000  -0.000   0.000   0.000  -2.929  -0.000   0.000  -0.000
 -4.685  -0.000   0.000  -0.000  -0.000  10.262   0.000  -0.000
 -0.000  -4.685  -0.000  -0.000   0.000   0.000  10.262   0.000
  0.000  -0.000  -4.697  -0.000  -0.000  -0.000   0.000  10.271
 -0.000  -0.000  -0.000  -4.685  -0.000   0.000   0.000   0.000
 -0.000   0.000  -0.000  -0.000  -4.697   0.000  -0.000   0.000
 -0.000  -0.000  -0.000  -0.000  -0.000  -0.000  -0.000  -0.000
 -0.000  -0.000  -0.000  -0.000   0.000  -0.000  -0.000  -0.000
  0.000  -0.000   0.000  -0.000   0.000   0.000   0.000  -0.000
 -0.000  -0.000  -0.000   0.000  -0.000  -0.000   0.000   0.000
 -0.000  -0.000  -0.000  -0.000   0.000  -0.000  -0.000   0.000
  0.000  -0.000   0.000   0.000   0.000   0.000   0.000   0.000
  0.000  -0.000  -0.000   0.000   0.000  -0.000  -0.000   0.000
 -0.000   0.000  -0.000  -0.000   0.000  -0.000  -0.000   0.000
 total augmentation occupancy for first ion, spin component:           1
  1.908  -0.000  -0.000   0.000   0.000  -0.015   0.000  -0.000   0.000   0.000  -0.000   0.000  -0.000  -0.000   0.000  -0.000
  0.000   1.908   0.000   0.000  -0.000   0.000  -0.015  -0.000   0.000  -0.000  -0.000  -0.000   0.000  -0.000  -0.000  -0.000
 -0.000  -0.000   1.927   0.000   0.000   0.000   0.000  -0.034   0.000  -0.000  -0.000  -0.000   0.000  -0.000  -0.000   0.000
  0.000   0.000   0.000   1.908  -0.000   0.000   0.000  -0.000  -0.015   0.000   0.000  -0.000   0.000   0.000   0.000   0.000
 -0.000  -0.000  -0.000   0.000   1.927  -0.000  -0.000   0.000   0.000  -0.034  -0.000  -0.000  -0.000   0.000   0.000  -0.000
 -0.015   0.000   0.000   0.000   0.000   0.017  -0.000   0.000  -0.000   0.000   0.000   0.000  -0.000   0.000  -0.000  -0.000
 -0.000  -0.015  -0.000   0.000  -0.000   0.000   0.017   0.000  -0.000  -0.000   0.000   0.000   0.000   0.000   0.000  -0.000
  0.000   0.000  -0.034   0.000   0.000   0.000  -0.000   0.016   0.000   0.000   0.000   0.000   0.000  -0.000   0.000   0.000
 -0.000   0.000  -0.000  -0.015  -0.000  -0.000   0.000   0.000   0.017   0.000  -0.000   0.000  -0.000   0.000   0.000   0.000
  0.000  -0.000   0.000   0.000  -0.034   0.000  -0.000   0.000   0.000   0.016   0.000   0.000   0.000  -0.000  -0.000  -0.000
  0.000   0.000  -0.000   0.000   0.000  -0.000  -0.000   0.000  -0.000  -0.000   1.791  -0.173   0.000   0.000  -0.000   0.000
  0.000  -0.000   0.000  -0.000  -0.000   0.000   0.000   0.000   0.000   0.000  -0.173   0.022  -0.000   0.000   0.000   0.000
 -0.000   0.000  -0.000   0.000   0.000  -0.000   0.000  -0.000  -0.000   0.000   0.000  -0.000   0.236   0.000   0.000  -0.016
 -0.000  -0.000   0.000   0.000   0.000   0.000   0.000  -0.000   0.000  -0.000   0.000   0.000   0.000   0.236   0.000  -0.000
  0.000  -0.000   0.000   0.000   0.000  -0.000   0.000   0.000   0.000  -0.000  -0.000   0.000   0.000   0.000   0.236  -0.000
 -0.000  -0.000  -0.000   0.000   0.000  -0.000  -0.000   0.000   0.000  -0.000   0.000   0.000  -0.016  -0.000   0.000   0.001
 -0.000   0.000   0.000  -0.000  -0.000   0.000  -0.000  -0.000   0.000   0.000  -0.000  -0.000   0.000  -0.016   0.000   0.000
  0.000  -0.000   0.000   0.000  -0.000   0.000  -0.000   0.000  -0.000  -0.000  -0.000   0.000   0.000   0.000  -0.016   0.000


------------------------ aborting loop because EDIFF is reached ----------------------------------------


 


 total charge     
 
# of ion     s       p       d       tot
----------------------------------------
  1        0.446   0.377   9.174   9.997
  2        0.446   0.377   9.174   9.997
  3        0.446   0.377   9.174   9.997
  4        0.446   0.377   9.174   9.997
------------------------------------------------
tot        1.784   1.509  36.694  39.987
 
    CHARGE:  cpu time    0.13: real time    0.13
    FORLOC:  cpu time    0.00: real time    0.00
    FORNL :  cpu time    0.62: real time    0.62
    STRESS:  cpu time    1.86: real time    1.86
    FORCOR:  cpu time    0.01: real time    0.01
    FORHAR:  cpu time    0.00: real time    0.00
    MIXING:  cpu time    0.00: real time    0.00
    OFIELD:  cpu time    0.00: real time    0.00

  DFT-D2 method for vdW energy calculation
  -------------------------------------------------------------------

  Parameters of vdW forcefield:
         C6(Jnm^6/mol)     R0(A)
   -----------------------------
   Cu       2.740          1.562

  IVDW =   1
  VDW_RADIUS =    40.000 A
  VDW_S6 =     0.750
  VDW_SR =     1.000
  VDW_D =    20.000
  LVDW_EWALD = F

  Number of pair interactions contributing to vdW energy:   56232
  Edisp (eV):   -0.41378
    FORVDW:  cpu time    0.01: real time    0.01

  FORCE on cell =-STRESS in cart. coord.  units (eV):
  Direction    XX          YY          ZZ          XY          YZ          ZX
  --------------------------------------------------------------------------------------
  Alpha Z   246.31741   246.31741   246.31741
  Ewald   -1470.49751 -1470.49751 -1470.49751     0.00000    -0.00000    -0.00000
  Hartree   452.95841   452.95841   452.95841    -0.00000    -0.00000    -0.00000
  E(xc)    -257.33056  -257.33056  -257.33056     0.00000    -0.00000     0.00000
  Local     374.73184   374.73184   374.73184    -0.00000    -0.00000     0.00000
  n-local   -78.00006   -86.88967   -88.19230     0.48178     2.75272     0.99420
  augment   379.32776   379.32776   379.32776    -0.00000    -0.00000     0.00000
  Kinetic   366.85097   358.23740   352.59234    -3.31522     0.02659    -1.36292
  Fock        0.00000     0.00000     0.00000     0.00000     0.00000     0.00000
  vdW        -0.53868    -0.53868    -0.53868    -0.00000    -0.00000     0.00000
  -------------------------------------------------------------------------------------
  Total      -0.16509    -0.16509    -0.16509     0.00000     0.00000    -0.00000
  in kB      -5.56787    -5.56787    -5.56787     0.00000     0.00000    -0.00000
  external pressure =       -5.57 kB  Pullay stress =        0.00 kB


 VOLUME and BASIS-vectors are now :
 -----------------------------------------------------------------------------
  energy-cutoff  :      700.00
  volume of cell :       47.50
      direct lattice vectors                 reciprocal lattice vectors
     3.621699080  0.000000000  0.000000000     0.276113498  0.000000000  0.000000000
     0.000000000  3.621699080  0.000000000     0.000000000  0.276113498  0.000000000
     0.000000000  0.000000000  3.621699080     0.000000000  0.000000000  0.276113498

  length of vectors
     3.621699080  3.621699080  3.621699080     0.276113498  0.276113498  0.276113498


 FORCES acting on ions
    electron-ion (+dipol)            ewald-force                    non-local-force                 convergence-correction
 -----------------------------------------------------------------------------------------------
   0.662E-13 0.609E-13 -.379E-12   -.749E-14 -.543E-14 0.756E-14   -.265E-22 0.438E-22 -.596E-22   -.896E-13 -.162E-12 -.309E-13
   0.676E-13 0.763E-12 0.337E-12   -.847E-14 0.520E-14 0.508E-14   -.331E-22 0.265E-22 0.149E-22   -.843E-13 -.103E-12 0.399E-13
   0.779E-12 0.607E-13 -.549E-11   0.867E-14 -.519E-14 0.502E-14   -.321E-22 -.265E-22 0.000E+00   -.465E-13 -.151E-12 0.253E-13
   0.776E-12 -.320E-11 -.511E-11   0.769E-14 0.544E-14 -.199E-13   -.265E-22 -.397E-22 0.182E-22   -.509E-13 -.647E-13 0.801E-13
 -----------------------------------------------------------------------------------------------
   0.169E-11 -.232E-11 -.106E-10   0.401E-15 0.146E-16 -.224E-14   -.118E-21 0.414E-23 -.265E-22   -.271E-12 -.480E-12 0.114E-12
 
 
 POSITION                                       TOTAL-FORCE (eV/Angst)
 -----------------------------------------------------------------------------------
      0.00000      0.00000      0.00000        -0.000000     -0.000000      0.000000
      0.00000      1.81085      1.81085        -0.000000     -0.000000     -0.000000
      1.81085      0.00000      1.81085         0.000000     -0.000000      0.000000
      1.81085      1.81085      0.00000         0.000000      0.000000      0.000000
 -----------------------------------------------------------------------------------
    total drift:                                0.000000     -0.000000     -0.000000


--------------------------------------------------------------------------------------------------------



  FREE ENERGIE OF THE ION-ELECTRON SYSTEM (eV)
  ---------------------------------------------------
  free  energy   TOTEN  =       -15.32460925 eV

  energy  without entropy=      -15.32429235  energy(sigma->0) =      -15.32450362
 


--------------------------------------------------------------------------------------------------------


    POTLOK:  cpu time    0.02: real time    0.02


--------------------------------------------------------------------------------------------------------




--------------------------------------------------------------------------------------------------------


 writing wavefunctions
     LOOP+:  cpu time   27.15: real time   29.13
    4ORBIT:  cpu time    0.00: real time    0.00
 


 total charge     
 
# of ion     s       p       d       tot
----------------------------------------
  1        0.446   0.377   9.174   9.997
  2        0.446   0.377   9.174   9.997
  3        0.446   0.377   9.174   9.997
  4        0.446   0.377   9.174   9.997
------------------------------------------------
tot        1.784   1.509  36.694  39.987
 

 total amount of memory used by VASP on root node    37768. kBytes
========================================================================

   base      :      30000. kBytes
   nonlr-proj:        562. kBytes
   fftplans  :        389. kBytes
   grid      :        548. kBytes
   one-center:         15. kBytes
   wavefun   :       6254. kBytes
 
  
  
 General timing and accounting informations for this job:
 ========================================================
  
                  Total CPU time used (sec):       29.380
                            User time (sec):       29.003
                          System time (sec):        0.377
                         Elapsed time (sec):       31.736
  
                   Maximum memory used (kb):       45656.
                   Average memory used (kb):           0.
  
                          Minor page faults:        14692
                          Major page faults:            6
                 Voluntary context switches:          982
