 vasp.5.3.5 31Mar14 (build Apr 25 2014 16:28:52) complex                        
  
 executed on             LinuxIFC date 2019.02.22  15:39:24
 running on   12 total cores
 distrk:  each k-point on   12 cores,    1 groups
 distr:  one band on NCORES_PER_BAND=   1 cores,   12 groups


--------------------------------------------------------------------------------------------------------


 INCAR:
 POTCAR:    PAW_PBE Fe 06Sep2000                  

 ----------------------------------------------------------------------------- 
|                                                                             |
|           W    W    AA    RRRRR   N    N  II  N    N   GGGG   !!!           |
|           W    W   A  A   R    R  NN   N  II  NN   N  G    G  !!!           |
|           W    W  A    A  R    R  N N  N  II  N N  N  G       !!!           |
|           W WW W  AAAAAA  RRRRR   N  N N  II  N  N N  G  GGG   !            |
|           WW  WW  A    A  R   R   N   NN  II  N   NN  G    G                |
|           W    W  A    A  R    R  N    N  II  N    N   GGGG   !!!           |
|                                                                             |
|      For optimal performance we recommend to set                            |
|        NCORE= 4 - approx SQRT( number of cores)                             |
|      NCORE specifies how many cores store one orbital (NPAR=cpu/NCORE).     |
|      This setting can  greatly improve the performance of VASP for DFT.     |
|      The default, NPAR=number of cores might be grossly inefficient         |
|      on modern multi-core architectures or massively parallel machines.     |
|      Do your own testing !!!!                                               |
|      Unfortunately you need to use the default for GW and RPA calculations. |
|      (for HF NCORE is supported but not extensively tested yet)             |
|                                                                             |
 ----------------------------------------------------------------------------- 

 POTCAR:    PAW_PBE Fe 06Sep2000                  
  local pseudopotential read in
  partial core-charges read in
  partial kinetic energy density read in
  atomic valenz-charges read in
  non local Contribution for L=           2  read in
    real space projection operators read in
  non local Contribution for L=           2  read in
    real space projection operators read in
  non local Contribution for L=           0  read in
    real space projection operators read in
  non local Contribution for L=           0  read in
    real space projection operators read in
  non local Contribution for L=           1  read in
    real space projection operators read in
  non local Contribution for L=           1  read in
    real space projection operators read in
    PAW grid and wavefunctions read in
 
   number of l-projection  operators is LMAX  =           6
   number of lm-projection operators is LMMAX =          18
 

 ----------------------------------------------------------------------------- 
|                                                                             |
|  ADVICE TO THIS USER RUNNING 'VASP/VAMP'   (HEAR YOUR MASTER'S VOICE ...):  |
|                                                                             |
|      You have a (more or less) 'small supercell' and for smaller cells      |
|      it is recommended  to use the reciprocal-space projection scheme!      |
|      The real space optimization is not  efficient for small cells and it   |
|      is also less accurate ...                                              |
|      Therefore set LREAL=.FALSE. in the  INCAR file                         |
|                                                                             |
 ----------------------------------------------------------------------------- 

 Optimization of the real space projectors (new method)

 maximal supplied QI-value         = 16.25
 optimisation between [QCUT,QGAM] = [ 13.49, 26.98] = [ 50.95,203.80] Ry 
 Optimized for a Real-space Cutoff    1.32 Angstroem

   l    n(q)    QCUT    max X(q) W(low)/X(q) W(high)/X(q)  e(spline) 
   2     10    13.489    80.901    0.41E-03    0.56E-03    0.31E-06
   2     10    13.489    75.754    0.41E-03    0.56E-03    0.31E-06
   0     11    13.489    58.752    0.81E-04    0.64E-05    0.65E-06
   0     11    13.489    30.679    0.74E-04    0.59E-05    0.59E-06
   1     10    13.489    17.977    0.12E-03    0.14E-03    0.21E-06
   1     10    13.489    13.559    0.94E-04    0.12E-03    0.18E-06
  PAW_PBE Fe 06Sep2000                  :
 energy of atom  1       EATOM= -594.3153
 kinetic energy error for atom=    0.0006 (will be added to EATOM!!)
 
 
 POSCAR: Fe                                      
  positions in cartesian coordinates
  No initial velocities read in
 exchange correlation table for  LEXCH =        8
   RHO(1)=    0.500       N(1)  =     2000
   RHO(2)=  100.500       N(2)  =     4000
 


--------------------------------------------------------------------------------------------------------


 ion  position               nearest neighbor table
   1  0.000  0.000  0.000-   2 2.48   2 2.48   2 2.48   2 2.48   2 2.48   2 2.48   2 2.48   2 2.48

   2  0.500  0.500  0.500-   1 2.48   1 2.48   1 2.48   1 2.48   1 2.48   1 2.48   1 2.48   1 2.48

 
  LATTYP: Found a simple cubic cell.
 ALAT       =     2.8664000034
  
  Lattice vectors:
  
 A1 = (   2.8664000034,   0.0000000000,   0.0000000000)
 A2 = (   0.0000000000,   2.8664000034,   0.0000000000)
 A3 = (   0.0000000000,   0.0000000000,   2.8664000034)


Analysis of symmetry for initial positions (statically):
=====================================================================
 Subroutine PRICEL returns following result:
 
  LATTYP: Found a body centered cubic cell.
 ALAT       =     2.8664000034
  
  Lattice vectors:
  
 A1 = (   1.4332000017,   1.4332000017,   1.4332000017)
 A2 = (   1.4332000017,  -1.4332000017,  -1.4332000017)
 A3 = (  -1.4332000017,   1.4332000017,  -1.4332000017)
 
   2 primitive cells build up your supercell.
 

 Routine SETGRP: Setting up the symmetry group for a 
 simple cubic supercell.


 Subroutine GETGRP returns: Found 48 space group operations
 (whereof 48 operations were pure point group operations)
 out of a pool of 48 trial point group operations.


The static configuration has the point symmetry O_h .


Analysis of symmetry for dynamics (positions and initial velocities):
=====================================================================
 Subroutine PRICEL returns following result:
 
  LATTYP: Found a body centered cubic cell.
 ALAT       =     2.8664000034
  
  Lattice vectors:
  
 A1 = (   1.4332000017,   1.4332000017,   1.4332000017)
 A2 = (   1.4332000017,  -1.4332000017,  -1.4332000017)
 A3 = (  -1.4332000017,   1.4332000017,  -1.4332000017)
 
   2 primitive cells build up your supercell.
 

 Routine SETGRP: Setting up the symmetry group for a 
 simple cubic supercell.


 Subroutine GETGRP returns: Found 48 space group operations
 (whereof 48 operations were pure point group operations)
 out of a pool of 48 trial point group operations.


The dynamic configuration has the point symmetry O_h .


Analysis of magnetic symmetry:
=====================================================================
 Subroutine PRICEL returns following result:
 
  LATTYP: Found a body centered cubic cell.
 ALAT       =     2.8664000034
  
  Lattice vectors:
  
 A1 = (   1.4332000017,   1.4332000017,   1.4332000017)
 A2 = (   1.4332000017,  -1.4332000017,  -1.4332000017)
 A3 = (  -1.4332000017,   1.4332000017,  -1.4332000017)
 
   2 primitive cells build up your supercell.
 

 Subroutine MAGSYM returns: Found 48 space group operations
 (whereof 48 operations were pure point group operations)
 out of a pool of 48 trial space group operations
 (whereof 48 operations were pure point group operations)
 and found also     2 'primitive' translations


The magnetic configuration has the point symmetry O_h .
 
 
 KPOINTS: K-POINTS                                

Automatic generation of k-mesh.
Space group operators:
 irot       det(A)        alpha          n_x          n_y          n_z        tau_x        tau_y        tau_z
    1     1.000000     0.000000     1.000000     0.000000     0.000000     0.000000     0.000000     0.000000
    2    -1.000000     0.000000     1.000000     0.000000     0.000000     0.000000     0.000000     0.000000
    3     1.000000   120.000000    -0.577350    -0.577350    -0.577350     0.000000     0.000000     0.000000
    4    -1.000000   120.000000    -0.577350    -0.577350    -0.577350     0.000000     0.000000     0.000000
    5     1.000000   120.000000     0.577350     0.577350     0.577350     0.000000     0.000000     0.000000
    6    -1.000000   120.000000     0.577350     0.577350     0.577350     0.000000     0.000000     0.000000
    7     1.000000    90.000000     0.000000     0.000000    -1.000000     0.000000     0.000000     0.000000
    8    -1.000000    90.000000     0.000000     0.000000    -1.000000     0.000000     0.000000     0.000000
    9     1.000000   180.000000     0.000000     0.707107     0.707107     0.000000     0.000000     0.000000
   10    -1.000000   180.000000     0.000000     0.707107     0.707107     0.000000     0.000000     0.000000
   11     1.000000    90.000000     0.000000     1.000000     0.000000     0.000000     0.000000     0.000000
   12    -1.000000    90.000000     0.000000     1.000000     0.000000     0.000000     0.000000     0.000000
   13     1.000000   180.000000     0.000000     0.000000     1.000000     0.000000     0.000000     0.000000
   14    -1.000000   180.000000     0.000000     0.000000     1.000000     0.000000     0.000000     0.000000
   15     1.000000   120.000000    -0.577350     0.577350     0.577350     0.000000     0.000000     0.000000
   16    -1.000000   120.000000    -0.577350     0.577350     0.577350     0.000000     0.000000     0.000000
   17     1.000000   120.000000    -0.577350     0.577350    -0.577350     0.000000     0.000000     0.000000
   18    -1.000000   120.000000    -0.577350     0.577350    -0.577350     0.000000     0.000000     0.000000
   19     1.000000    90.000000     0.000000     0.000000     1.000000     0.000000     0.000000     0.000000
   20    -1.000000    90.000000     0.000000     0.000000     1.000000     0.000000     0.000000     0.000000
   21     1.000000    90.000000    -1.000000     0.000000     0.000000     0.000000     0.000000     0.000000
   22    -1.000000    90.000000    -1.000000     0.000000     0.000000     0.000000     0.000000     0.000000
   23     1.000000   180.000000     0.707107     0.000000     0.707107     0.000000     0.000000     0.000000
   24    -1.000000   180.000000     0.707107     0.000000     0.707107     0.000000     0.000000     0.000000
   25     1.000000   120.000000     0.577350    -0.577350     0.577350     0.000000     0.000000     0.000000
   26    -1.000000   120.000000     0.577350    -0.577350     0.577350     0.000000     0.000000     0.000000
   27     1.000000   120.000000    -0.577350    -0.577350     0.577350     0.000000     0.000000     0.000000
   28    -1.000000   120.000000    -0.577350    -0.577350     0.577350     0.000000     0.000000     0.000000
   29     1.000000   180.000000     1.000000     0.000000     0.000000     0.000000     0.000000     0.000000
   30    -1.000000   180.000000     1.000000     0.000000     0.000000     0.000000     0.000000     0.000000
   31     1.000000    90.000000     0.000000    -1.000000     0.000000     0.000000     0.000000     0.000000
   32    -1.000000    90.000000     0.000000    -1.000000     0.000000     0.000000     0.000000     0.000000
   33     1.000000   180.000000     0.707107     0.707107     0.000000     0.000000     0.000000     0.000000
   34    -1.000000   180.000000     0.707107     0.707107     0.000000     0.000000     0.000000     0.000000
   35     1.000000    90.000000     1.000000     0.000000     0.000000     0.000000     0.000000     0.000000
   36    -1.000000    90.000000     1.000000     0.000000     0.000000     0.000000     0.000000     0.000000
   37     1.000000   120.000000     0.577350    -0.577350    -0.577350     0.000000     0.000000     0.000000
   38    -1.000000   120.000000     0.577350    -0.577350    -0.577350     0.000000     0.000000     0.000000
   39     1.000000   180.000000     0.000000     1.000000     0.000000     0.000000     0.000000     0.000000
   40    -1.000000   180.000000     0.000000     1.000000     0.000000     0.000000     0.000000     0.000000
   41     1.000000   120.000000     0.577350     0.577350    -0.577350     0.000000     0.000000     0.000000
   42    -1.000000   120.000000     0.577350     0.577350    -0.577350     0.000000     0.000000     0.000000
   43     1.000000   180.000000     0.000000    -0.707107     0.707107     0.000000     0.000000     0.000000
   44    -1.000000   180.000000     0.000000    -0.707107     0.707107     0.000000     0.000000     0.000000
   45     1.000000   180.000000     0.707107    -0.707107     0.000000     0.000000     0.000000     0.000000
   46    -1.000000   180.000000     0.707107    -0.707107     0.000000     0.000000     0.000000     0.000000
   47     1.000000   180.000000     0.707107     0.000000    -0.707107     0.000000     0.000000     0.000000
   48    -1.000000   180.000000     0.707107     0.000000    -0.707107     0.000000     0.000000     0.000000
 
 Subroutine IBZKPT returns following result:
 ===========================================
 
 Found     56 irreducible k-points:
 
 Following reciprocal coordinates:
            Coordinates               Weight
  0.000000  0.000000  0.000000      1.000000
  0.090909  0.000000  0.000000      6.000000
  0.181818  0.000000  0.000000      6.000000
  0.272727  0.000000  0.000000      6.000000
  0.363636  0.000000  0.000000      6.000000
  0.454545  0.000000  0.000000      6.000000
  0.090909  0.090909  0.000000     12.000000
  0.181818  0.090909  0.000000     24.000000
  0.272727  0.090909  0.000000     24.000000
  0.363636  0.090909  0.000000     24.000000
  0.454545  0.090909  0.000000     24.000000
  0.181818  0.181818  0.000000     12.000000
  0.272727  0.181818  0.000000     24.000000
  0.363636  0.181818  0.000000     24.000000
  0.454545  0.181818  0.000000     24.000000
  0.272727  0.272727  0.000000     12.000000
  0.363636  0.272727  0.000000     24.000000
  0.454545  0.272727  0.000000     24.000000
  0.363636  0.363636  0.000000     12.000000
  0.454545  0.363636  0.000000     24.000000
  0.454545  0.454545  0.000000     12.000000
  0.090909  0.090909  0.090909      8.000000
  0.181818  0.090909  0.090909     24.000000
  0.272727  0.090909  0.090909     24.000000
  0.363636  0.090909  0.090909     24.000000
  0.454545  0.090909  0.090909     24.000000
  0.181818  0.181818  0.090909     24.000000
  0.272727  0.181818  0.090909     48.000000
  0.363636  0.181818  0.090909     48.000000
  0.454545  0.181818  0.090909     48.000000
  0.272727  0.272727  0.090909     24.000000
  0.363636  0.272727  0.090909     48.000000
  0.454545  0.272727  0.090909     48.000000
  0.363636  0.363636  0.090909     24.000000
  0.454545  0.363636  0.090909     48.000000
  0.454545  0.454545  0.090909     24.000000
  0.181818  0.181818  0.181818      8.000000
  0.272727  0.181818  0.181818     24.000000
  0.363636  0.181818  0.181818     24.000000
  0.454545  0.181818  0.181818     24.000000
  0.272727  0.272727  0.181818     24.000000
  0.363636  0.272727  0.181818     48.000000
  0.454545  0.272727  0.181818     48.000000
  0.363636  0.363636  0.181818     24.000000
  0.454545  0.363636  0.181818     48.000000
  0.454545  0.454545  0.181818     24.000000
  0.272727  0.272727  0.272727      8.000000
  0.363636  0.272727  0.272727     24.000000
  0.454545  0.272727  0.272727     24.000000
  0.363636  0.363636  0.272727     24.000000
  0.454545  0.363636  0.272727     48.000000
  0.454545  0.454545  0.272727     24.000000
  0.363636  0.363636  0.363636      8.000000
  0.454545  0.363636  0.363636     24.000000
  0.454545  0.454545  0.363636     24.000000
  0.454545  0.454545  0.454545      8.000000
 
 Following cartesian coordinates:
            Coordinates               Weight
  0.000000  0.000000  0.000000      1.000000
  0.031715  0.000000  0.000000      6.000000
  0.063431  0.000000  0.000000      6.000000
  0.095146  0.000000  0.000000      6.000000
  0.126862  0.000000  0.000000      6.000000
  0.158577  0.000000  0.000000      6.000000
  0.031715  0.031715  0.000000     12.000000
  0.063431  0.031715  0.000000     24.000000
  0.095146  0.031715  0.000000     24.000000
  0.126862  0.031715  0.000000     24.000000
  0.158577  0.031715  0.000000     24.000000
  0.063431  0.063431  0.000000     12.000000
  0.095146  0.063431  0.000000     24.000000
  0.126862  0.063431  0.000000     24.000000
  0.158577  0.063431  0.000000     24.000000
  0.095146  0.095146  0.000000     12.000000
  0.126862  0.095146  0.000000     24.000000
  0.158577  0.095146  0.000000     24.000000
  0.126862  0.126862  0.000000     12.000000
  0.158577  0.126862  0.000000     24.000000
  0.158577  0.158577  0.000000     12.000000
  0.031715  0.031715  0.031715      8.000000
  0.063431  0.031715  0.031715     24.000000
  0.095146  0.031715  0.031715     24.000000
  0.126862  0.031715  0.031715     24.000000
  0.158577  0.031715  0.031715     24.000000
  0.063431  0.063431  0.031715     24.000000
  0.095146  0.063431  0.031715     48.000000
  0.126862  0.063431  0.031715     48.000000
  0.158577  0.063431  0.031715     48.000000
  0.095146  0.095146  0.031715     24.000000
  0.126862  0.095146  0.031715     48.000000
  0.158577  0.095146  0.031715     48.000000
  0.126862  0.126862  0.031715     24.000000
  0.158577  0.126862  0.031715     48.000000
  0.158577  0.158577  0.031715     24.000000
  0.063431  0.063431  0.063431      8.000000
  0.095146  0.063431  0.063431     24.000000
  0.126862  0.063431  0.063431     24.000000
  0.158577  0.063431  0.063431     24.000000
  0.095146  0.095146  0.063431     24.000000
  0.126862  0.095146  0.063431     48.000000
  0.158577  0.095146  0.063431     48.000000
  0.126862  0.126862  0.063431     24.000000
  0.158577  0.126862  0.063431     48.000000
  0.158577  0.158577  0.063431     24.000000
  0.095146  0.095146  0.095146      8.000000
  0.126862  0.095146  0.095146     24.000000
  0.158577  0.095146  0.095146     24.000000
  0.126862  0.126862  0.095146     24.000000
  0.158577  0.126862  0.095146     48.000000
  0.158577  0.158577  0.095146     24.000000
  0.126862  0.126862  0.126862      8.000000
  0.158577  0.126862  0.126862     24.000000
  0.158577  0.158577  0.126862     24.000000
  0.158577  0.158577  0.158577      8.000000
 


--------------------------------------------------------------------------------------------------------




 Dimension of arrays:
   k-points           NKPTS =     56   k-points in BZ     NKDIM =     56   number of bands    NBANDS=     24
   number of dos      NEDOS =   3000   number of ions     NIONS =      2
   non local maximal  LDIM  =      6   non local SUM 2l+1 LMDIM =     18
   total plane-waves  NPLWV =   8000
   max r-space proj   IRMAX =   3337   max aug-charges    IRDMAX=  12298
   dimension x,y,z NGX =    20 NGY =   20 NGZ =   20
   dimension x,y,z NGXF=    40 NGYF=   40 NGZF=   40
   support grid    NGXF=    40 NGYF=   40 NGZF=   40
   ions per type =               2
 NGX,Y,Z   is equivalent  to a cutoff of  11.60, 11.60, 11.60 a.u.
 NGXF,Y,Z  is equivalent  to a cutoff of  23.20, 23.20, 23.20 a.u.


 I would recommend the setting:
   dimension x,y,z NGX =    19 NGY =   19 NGZ =   19
 SYSTEM =  Cu-lattice                              
 POSCAR =  Fe                                      

 Startparameter for this run:
   NWRITE =      0    write-flag & timer
   PREC   = normal    normal or accurate (medium, high low for compatibility)
   ISTART =      0    job   : 0-new  1-cont  2-samecut
   ICHARG =      2    charge: 1-file 2-atom 10-const
   ISPIN  =      2    spin polarized calculation?
   LNONCOLLINEAR =      F non collinear calculations
   LSORBIT =      F    spin-orbit coupling
   INIWAV =      1    electr: 0-lowe 1-rand  2-diag
   LASPH  =      F    aspherical Exc in radial PAW
   METAGGA=      F    non-selfconsistent MetaGGA calc.

 Electronic Relaxation 1
   ENCUT  =  700.0 eV  51.45 Ry    7.17 a.u.   6.18  6.18  6.18*2*pi/ulx,y,z
   ENINI  =  700.0     initial cutoff
   ENAUG  =  511.4 eV  augmentation charge cutoff
   NELM   =    100;   NELMIN=  2; NELMDL= -5     # of ELM steps 
   EDIFF  = 0.1E-06   stopping-criterion for ELM
   LREAL  =      T    real-space projection
   NLSPLINE    = F    spline interpolate recip. space projectors
   LCOMPAT=      F    compatible to vasp.4.4
   GGA_COMPAT  = T    GGA compatible to vasp.4.4-vasp.4.6
   LMAXPAW     = -100 max onsite density
   LMAXMIX     =    2 max onsite mixed and CHGCAR
   VOSKOWN=      0    Vosko Wilk Nusair interpolation
   ROPT   =   -0.00050
 Ionic relaxation
   EDIFFG = -.2E-01   stopping-criterion for IOM
   NSW    =    111    number of steps for IOM
   NBLOCK =      1;   KBLOCK =    111    inner block; outer block 
   IBRION =      1    ionic relax: 0-MD 1-quasi-New 2-CG
   NFREE  =      0    steps in history (QN), initial steepest desc. (CG)
   ISIF   =      3    stress and relaxation
   IWAVPR =     11    prediction:  0-non 1-charg 2-wave 3-comb
   ISYM   =      2    0-nonsym 1-usesym 2-fastsym
   LCORR  =      T    Harris-Foulkes like correction to forces

   POTIM  = 0.1000    time-step for ionic-motion
   TEIN   =    0.0    initial temperature
   TEBEG  =    0.0;   TEEND  =   0.0 temperature during run
   SMASS  =  -3.00    Nose mass-parameter (am)
   estimated Nose-frequenzy (Omega)   =  0.10E-29 period in steps =****** mass=  -0.188E-27a.u.
   SCALEE = 1.0000    scale energy and forces
   NPACO  =    256;   APACO  = 16.0  distance and # of slots for P.C.
   PSTRESS=    0.0 pullay stress

  Mass of Ions in am
   POMASS =  55.85
  Ionic Valenz
   ZVAL   =   8.00
  Atomic Wigner-Seitz radii
   RWIGS  =  -1.00
  virtual crystal weights 
   VCA    =   1.00
   NELECT =      16.0000    total number of electrons
   NUPDOWN=      -1.0000    fix difference up-down

 DOS related values:
   EMIN   =  10.00;   EMAX   =-10.00  energy-range for DOS
   EFERMI =   0.00
   ISMEAR =     1;   SIGMA  =   0.10  broadening in eV -4-tet -1-fermi 0-gaus

 Electronic relaxation 2 (details)
   IALGO  =     68    algorithm
   LDIAG  =      T    sub-space diagonalisation (order eigenvalues)
   LSUBROT=      F    optimize rotation matrix (better conditioning)
   TURBO    =      0    0=normal 1=particle mesh
   IRESTART =      0    0=no restart 2=restart with 2 vectors
   NREBOOT  =      0    no. of reboots
   NMIN     =      0    reboot dimension
   EREF     =   0.00    reference energy to select bands
   IMIX   =      4    mixing-type and parameters
     AMIX     =   0.40;   BMIX     =  1.00
     AMIX_MAG =   1.60;   BMIX_MAG =  1.00
     AMIN     =   0.10
     WC   =   100.;   INIMIX=   1;  MIXPRE=   1;  MAXMIX= -45

 Intra band minimization:
   WEIMIN = 0.0010     energy-eigenvalue tresh-hold
   EBREAK =  0.10E-08  absolut break condition
   DEPER  =   0.30     relativ break condition  

   TIME   =   0.40     timestep for ELM

  volume/ion in A,a.u.               =      11.78        79.47
  Fermi-wavevector in a.u.,A,eV,Ry     =   1.439168  2.719632 28.180431  2.071203
  Thomas-Fermi vector in A             =   2.558053
 
 Write flags
   LWAVE  =      T    write WAVECAR
   LCHARG =      T    write CHGCAR
   LVTOT  =      F    write LOCPOT, total local potential
   LVHAR  =      F    write LOCPOT, Hartree potential only
   LELF   =      F    write electronic localiz. function (ELF)
   LORBIT =     11    0 simple, 1 ext, 2 COOP (PROOUT)


 Dipole corrections
   LMONO  =      F    monopole corrections only (constant potential shift)
   LDIPOL =      F    correct potential (dipole corrections)
   IDIPOL =      0    1-x, 2-y, 3-z, 4-all directions 
   EPSILON=  1.0000000 bulk dielectric constant

 Exchange correlation treatment:
   GGA     =    PE    GGA type
   LEXCH   =     8    internal setting for exchange type
   VOSKOWN=      0    Vosko Wilk Nusair interpolation
   LHFCALC =     F    Hartree Fock is set to
   LHFONE  =     F    Hartree Fock one center treatment
   AEXX    =    0.0000 exact exchange contribution

 Linear response parameters
   LEPSILON=     F    determine dielectric tensor
   LRPA    =     F    only Hartree local field effects (RPA)
   LNABLA  =     F    use nabla operator in PAW spheres
   LVEL    =     F    velocity operator in full k-point grid
   LINTERFAST=   F  fast interpolation
   KINTER  =     0    interpolate to denser k-point grid
   CSHIFT  =0.1000    complex shift for real part using Kramers Kronig
   OMEGAMAX=  -1.0    maximum frequency
   DEG_THRESHOLD= 0.2000000E-02 threshold for treating states as degnerate
   RTIME   =    0.100 relaxation time in fs

 Orbital magnetization related:
   ORBITALMAG=     F  switch on orbital magnetization
   LCHIMAG   =     F  perturbation theory with respect to B field
   DQ        =  0.001000  dq finite difference perturbation B field



--------------------------------------------------------------------------------------------------------


 quasi-Newton-method for relaxation of ions
 charge density and potential will be updated during run
 spin polarized calculation
 RMM-DIIS sequential band-by-band and
  variant of blocked Davidson during initial phase
 perform sub-space diagonalisation
    before iterative eigenvector-optimisation
 modified Broyden-mixing scheme, WC =      100.0
 initial mixing is a Kerker type mixing with AMIX =  0.4000 and BMIX =      1.0000
 Hartree-type preconditioning will be used
 using additional bands           16
 real space projection scheme for non local part
 use partial core corrections
 calculate Harris-corrections to forces 
   (improved forces if not selfconsistent)
 use gradient corrections 
 use of overlap-Matrix (Vanderbilt PP)
 Methfessel and Paxton  Order N= 1 SIGMA  =   0.10


--------------------------------------------------------------------------------------------------------


  energy-cutoff  :      700.00
  volume of cell :       23.55
      direct lattice vectors                 reciprocal lattice vectors
     2.866400003  0.000000000  0.000000000     0.348869662  0.000000000  0.000000000
     0.000000000  2.866400003  0.000000000     0.000000000  0.348869662  0.000000000
     0.000000000  0.000000000  2.866400003     0.000000000  0.000000000  0.348869662

  length of vectors
     2.866400003  2.866400003  2.866400003     0.348869662  0.348869662  0.348869662


 
 k-points in units of 2pi/SCALE and weight: K-POINTS                                
   0.00000000  0.00000000  0.00000000       0.001
   0.03171542  0.00000000  0.00000000       0.005
   0.06343085  0.00000000  0.00000000       0.005
   0.09514627  0.00000000  0.00000000       0.005
   0.12686170  0.00000000  0.00000000       0.005
   0.15857712  0.00000000  0.00000000       0.005
   0.03171542  0.03171542  0.00000000       0.009
   0.06343085  0.03171542  0.00000000       0.018
   0.09514627  0.03171542  0.00000000       0.018
   0.12686170  0.03171542  0.00000000       0.018
   0.15857712  0.03171542  0.00000000       0.018
   0.06343085  0.06343085  0.00000000       0.009
   0.09514627  0.06343085  0.00000000       0.018
   0.12686170  0.06343085  0.00000000       0.018
   0.15857712  0.06343085  0.00000000       0.018
   0.09514627  0.09514627  0.00000000       0.009
   0.12686170  0.09514627  0.00000000       0.018
   0.15857712  0.09514627  0.00000000       0.018
   0.12686170  0.12686170  0.00000000       0.009
   0.15857712  0.12686170  0.00000000       0.018
   0.15857712  0.15857712  0.00000000       0.009
   0.03171542  0.03171542  0.03171542       0.006
   0.06343085  0.03171542  0.03171542       0.018
   0.09514627  0.03171542  0.03171542       0.018
   0.12686170  0.03171542  0.03171542       0.018
   0.15857712  0.03171542  0.03171542       0.018
   0.06343085  0.06343085  0.03171542       0.018
   0.09514627  0.06343085  0.03171542       0.036
   0.12686170  0.06343085  0.03171542       0.036
   0.15857712  0.06343085  0.03171542       0.036
   0.09514627  0.09514627  0.03171542       0.018
   0.12686170  0.09514627  0.03171542       0.036
   0.15857712  0.09514627  0.03171542       0.036
   0.12686170  0.12686170  0.03171542       0.018
   0.15857712  0.12686170  0.03171542       0.036
   0.15857712  0.15857712  0.03171542       0.018
   0.06343085  0.06343085  0.06343085       0.006
   0.09514627  0.06343085  0.06343085       0.018
   0.12686170  0.06343085  0.06343085       0.018
   0.15857712  0.06343085  0.06343085       0.018
   0.09514627  0.09514627  0.06343085       0.018
   0.12686170  0.09514627  0.06343085       0.036
   0.15857712  0.09514627  0.06343085       0.036
   0.12686170  0.12686170  0.06343085       0.018
   0.15857712  0.12686170  0.06343085       0.036
   0.15857712  0.15857712  0.06343085       0.018
   0.09514627  0.09514627  0.09514627       0.006
   0.12686170  0.09514627  0.09514627       0.018
   0.15857712  0.09514627  0.09514627       0.018
   0.12686170  0.12686170  0.09514627       0.018
   0.15857712  0.12686170  0.09514627       0.036
   0.15857712  0.15857712  0.09514627       0.018
   0.12686170  0.12686170  0.12686170       0.006
   0.15857712  0.12686170  0.12686170       0.018
   0.15857712  0.15857712  0.12686170       0.018
   0.15857712  0.15857712  0.15857712       0.006
 
 k-points in reciprocal lattice and weights: K-POINTS                                
   0.00000000  0.00000000  0.00000000       0.001
   0.09090909  0.00000000  0.00000000       0.005
   0.18181818  0.00000000  0.00000000       0.005
   0.27272727  0.00000000  0.00000000       0.005
   0.36363636  0.00000000  0.00000000       0.005
   0.45454545  0.00000000  0.00000000       0.005
   0.09090909  0.09090909  0.00000000       0.009
   0.18181818  0.09090909  0.00000000       0.018
   0.27272727  0.09090909  0.00000000       0.018
   0.36363636  0.09090909  0.00000000       0.018
   0.45454545  0.09090909  0.00000000       0.018
   0.18181818  0.18181818  0.00000000       0.009
   0.27272727  0.18181818  0.00000000       0.018
   0.36363636  0.18181818  0.00000000       0.018
   0.45454545  0.18181818  0.00000000       0.018
   0.27272727  0.27272727  0.00000000       0.009
   0.36363636  0.27272727  0.00000000       0.018
   0.45454545  0.27272727  0.00000000       0.018
   0.36363636  0.36363636  0.00000000       0.009
   0.45454545  0.36363636  0.00000000       0.018
   0.45454545  0.45454545  0.00000000       0.009
   0.09090909  0.09090909  0.09090909       0.006
   0.18181818  0.09090909  0.09090909       0.018
   0.27272727  0.09090909  0.09090909       0.018
   0.36363636  0.09090909  0.09090909       0.018
   0.45454545  0.09090909  0.09090909       0.018
   0.18181818  0.18181818  0.09090909       0.018
   0.27272727  0.18181818  0.09090909       0.036
   0.36363636  0.18181818  0.09090909       0.036
   0.45454545  0.18181818  0.09090909       0.036
   0.27272727  0.27272727  0.09090909       0.018
   0.36363636  0.27272727  0.09090909       0.036
   0.45454545  0.27272727  0.09090909       0.036
   0.36363636  0.36363636  0.09090909       0.018
   0.45454545  0.36363636  0.09090909       0.036
   0.45454545  0.45454545  0.09090909       0.018
   0.18181818  0.18181818  0.18181818       0.006
   0.27272727  0.18181818  0.18181818       0.018
   0.36363636  0.18181818  0.18181818       0.018
   0.45454545  0.18181818  0.18181818       0.018
   0.27272727  0.27272727  0.18181818       0.018
   0.36363636  0.27272727  0.18181818       0.036
   0.45454545  0.27272727  0.18181818       0.036
   0.36363636  0.36363636  0.18181818       0.018
   0.45454545  0.36363636  0.18181818       0.036
   0.45454545  0.45454545  0.18181818       0.018
   0.27272727  0.27272727  0.27272727       0.006
   0.36363636  0.27272727  0.27272727       0.018
   0.45454545  0.27272727  0.27272727       0.018
   0.36363636  0.36363636  0.27272727       0.018
   0.45454545  0.36363636  0.27272727       0.036
   0.45454545  0.45454545  0.27272727       0.018
   0.36363636  0.36363636  0.36363636       0.006
   0.45454545  0.36363636  0.36363636       0.018
   0.45454545  0.45454545  0.36363636       0.018
   0.45454545  0.45454545  0.45454545       0.006
 
 position of ions in fractional coordinates (direct lattice) 
   0.00000000  0.00000000  0.00000000
   0.50000000  0.50000000  0.50000000
 
 position of ions in cartesian coordinates  (Angst):
   0.00000000  0.00000000  0.00000000
   1.43320000  1.43320000  1.43320000
 


--------------------------------------------------------------------------------------------------------


 k-point  1 :   0.0000 0.0000 0.0000  plane waves:    1021
 k-point  2 :   0.0909 0.0000 0.0000  plane waves:     993
 k-point  3 :   0.1818 0.0000 0.0000  plane waves:     985
 k-point  4 :   0.2727 0.0000 0.0000  plane waves:     984
 k-point  5 :   0.3636 0.0000 0.0000  plane waves:     992
 k-point  6 :   0.4545 0.0000 0.0000  plane waves:     996
 k-point  7 :   0.0909 0.0909 0.0000  plane waves:     989
 k-point  8 :   0.1818 0.0909 0.0000  plane waves:     993
 k-point  9 :   0.2727 0.0909 0.0000  plane waves:     990
 k-point 10 :   0.3636 0.0909 0.0000  plane waves:     990
 k-point 11 :   0.4545 0.0909 0.0000  plane waves:     990
 k-point 12 :   0.1818 0.1818 0.0000  plane waves:     985
 k-point 13 :   0.2727 0.1818 0.0000  plane waves:     994
 k-point 14 :   0.3636 0.1818 0.0000  plane waves:     991
 k-point 15 :   0.4545 0.1818 0.0000  plane waves:     983
 k-point 16 :   0.2727 0.2727 0.0000  plane waves:     989
 k-point 17 :   0.3636 0.2727 0.0000  plane waves:     988
 k-point 18 :   0.4545 0.2727 0.0000  plane waves:     985
 k-point 19 :   0.3636 0.3636 0.0000  plane waves:     989
 k-point 20 :   0.4545 0.3636 0.0000  plane waves:     993
 k-point 21 :   0.4545 0.4545 0.0000  plane waves:    1000
 k-point 22 :   0.0909 0.0909 0.0909  plane waves:     985
 k-point 23 :   0.1818 0.0909 0.0909  plane waves:     983
 k-point 24 :   0.2727 0.0909 0.0909  plane waves:     988
 k-point 25 :   0.3636 0.0909 0.0909  plane waves:     990
 k-point 26 :   0.4545 0.0909 0.0909  plane waves:     994
 k-point 27 :   0.1818 0.1818 0.0909  plane waves:     982
 k-point 28 :   0.2727 0.1818 0.0909  plane waves:     989
 k-point 29 :   0.3636 0.1818 0.0909  plane waves:     990
 k-point 30 :   0.4545 0.1818 0.0909  plane waves:     986
 k-point 31 :   0.2727 0.2727 0.0909  plane waves:     994
 k-point 32 :   0.3636 0.2727 0.0909  plane waves:     991
 k-point 33 :   0.4545 0.2727 0.0909  plane waves:     992
 k-point 34 :   0.3636 0.3636 0.0909  plane waves:     993
 k-point 35 :   0.4545 0.3636 0.0909  plane waves:     992
 k-point 36 :   0.4545 0.4545 0.0909  plane waves:     999
 k-point 37 :   0.1818 0.1818 0.1818  plane waves:     985
 k-point 38 :   0.2727 0.1818 0.1818  plane waves:     988
 k-point 39 :   0.3636 0.1818 0.1818  plane waves:     993
 k-point 40 :   0.4545 0.1818 0.1818  plane waves:     990
 k-point 41 :   0.2727 0.2727 0.1818  plane waves:     992
 k-point 42 :   0.3636 0.2727 0.1818  plane waves:     990
 k-point 43 :   0.4545 0.2727 0.1818  plane waves:     995
 k-point 44 :   0.3636 0.3636 0.1818  plane waves:     984
 k-point 45 :   0.4545 0.3636 0.1818  plane waves:     989
 k-point 46 :   0.4545 0.4545 0.1818  plane waves:     999
 k-point 47 :   0.2727 0.2727 0.2727  plane waves:     997
 k-point 48 :   0.3636 0.2727 0.2727  plane waves:     988
 k-point 49 :   0.4545 0.2727 0.2727  plane waves:     988
 k-point 50 :   0.3636 0.3636 0.2727  plane waves:     992
 k-point 51 :   0.4545 0.3636 0.2727  plane waves:     992
 k-point 52 :   0.4545 0.4545 0.2727  plane waves:     993
 k-point 53 :   0.3636 0.3636 0.3636  plane waves:     994
 k-point 54 :   0.4545 0.3636 0.3636  plane waves:     996
 k-point 55 :   0.4545 0.4545 0.3636  plane waves:     999
 k-point 56 :   0.4545 0.4545 0.4545  plane waves:     986

 maximum and minimum number of plane-waves per node :      1021      982

 maximum number of plane-waves:      1021
 maximum index in each direction: 
   IXMAX=    6   IYMAX=    6   IZMAX=    6
   IXMIN=   -6   IYMIN=   -6   IZMIN=   -6

 WARNING: aliasing errors must be expected set NGX to  26 to avoid them
 WARNING: aliasing errors must be expected set NGY to  26 to avoid them
 WARNING: aliasing errors must be expected set NGZ to  26 to avoid them
 aliasing errors are usually negligible using standard VASP settings
 and one can safely disregard these warnings

 serial   3D FFT for wavefunctions
 parallel 3D FFT for charge:
    minimum data exchange during FFTs selected (reduces bandwidth)


 total amount of memory used by VASP on root node    36392. kBytes
========================================================================

   base      :      30000. kBytes
   nonlr-proj:       1122. kBytes
   fftplans  :        250. kBytes
   grid      :       1131. kBytes
   one-center:         62. kBytes
   wavefun   :       3827. kBytes
 
     INWAV:  cpu time    0.00: real time    0.00
 Broyden mixing: mesh for mixing (old mesh)
   NGX = 13   NGY = 13   NGZ = 13
  (NGX  = 40   NGY  = 40   NGZ  = 40)
  gives a total of   2197 points

 initial charge density was supplied:
 charge density of overlapping atoms calculated
 number of electron      16.0000000 magnetization       2.0000000
 keeping initial charge density in first step


--------------------------------------------------------------------------------------------------------


 Maximum index for non-local projection operator         3191
 Maximum index for augmentation-charges         1375 (set IRDMAX)


--------------------------------------------------------------------------------------------------------


 First call to EWALD:  gamma=   0.618
 Maximum number of real-space cells 3x 3x 3
 Maximum number of reciprocal cells 3x 3x 3

 FEWALD executed in parallel
    FEWALD:  cpu time    0.01: real time    0.01


----------------------------------------- Iteration    1(   1)  ---------------------------------------


    POTLOK:  cpu time    0.03: real time    0.03
    SETDIJ:  cpu time    0.02: real time    0.02
     EDDAV:  cpu time    8.66: real time    8.68
       DOS:  cpu time    0.03: real time    0.03
    --------------------------------------------
      LOOP:  cpu time    8.75: real time    8.77

 eigenvalue-minimisations  :  5760
 total energy-change (2. order) : 0.6063678E+02  (-0.8996262E+03)
 number of electron      16.0000000 magnetization       2.0000000
 augmentation part       16.0000000 magnetization       2.0000000

 Free energy of the ion-electron system (eV)
  ---------------------------------------------------
  alpha Z        PSCENC =       117.38543817
  Ewald energy   TEWEN  =     -1170.06279329
  -Hartree energ DENC   =      -228.58347345
  -exchange      EXHF   =         0.00000000
  -V(xc)+E(xc)   XCENC  =         7.87006596
  PAW double counting   =      1109.45345578    -1124.86183816
  entropy T*S    EENTRO =         0.00015686
  eigenvalues    EBANDS =       160.80631911
  atomic energy  EATOM  =      1188.62944521
  ---------------------------------------------------
  free energy    TOTEN  =        60.63677620 eV

  energy without entropy =       60.63661934  energy(sigma->0) =       60.63672391


--------------------------------------------------------------------------------------------------------




----------------------------------------- Iteration    1(   2)  ---------------------------------------


     EDDAV:  cpu time    7.96: real time    7.98
       DOS:  cpu time    0.02: real time    0.02
    --------------------------------------------
      LOOP:  cpu time    7.98: real time    8.01

 eigenvalue-minimisations  :  5700
 total energy-change (2. order) :-0.7640547E+02  (-0.6971027E+02)
 number of electron      16.0000000 magnetization       2.0000000
 augmentation part       16.0000000 magnetization       2.0000000

 Free energy of the ion-electron system (eV)
  ---------------------------------------------------
  alpha Z        PSCENC =       117.38543817
  Ewald energy   TEWEN  =     -1170.06279329
  -Hartree energ DENC   =      -228.58347345
  -exchange      EXHF   =         0.00000000
  -V(xc)+E(xc)   XCENC  =         7.87006596
  PAW double counting   =      1109.45345578    -1124.86183816
  entropy T*S    EENTRO =        -0.00133128
  eigenvalues    EBANDS =        84.40233294
  atomic energy  EATOM  =      1188.62944521
  ---------------------------------------------------
  free energy    TOTEN  =       -15.76869812 eV

  energy without entropy =      -15.76736684  energy(sigma->0) =      -15.76825436


--------------------------------------------------------------------------------------------------------




----------------------------------------- Iteration    1(   3)  ---------------------------------------


     EDDAV:  cpu time    9.51: real time    9.53
       DOS:  cpu time    0.02: real time    0.02
    --------------------------------------------
      LOOP:  cpu time    9.53: real time    9.55

 eigenvalue-minimisations  :  6816
 total energy-change (2. order) :-0.2688757E+01  (-0.2655218E+01)
 number of electron      16.0000000 magnetization       2.0000000
 augmentation part       16.0000000 magnetization       2.0000000

 Free energy of the ion-electron system (eV)
  ---------------------------------------------------
  alpha Z        PSCENC =       117.38543817
  Ewald energy   TEWEN  =     -1170.06279329
  -Hartree energ DENC   =      -228.58347345
  -exchange      EXHF   =         0.00000000
  -V(xc)+E(xc)   XCENC  =         7.87006596
  PAW double counting   =      1109.45345578    -1124.86183816
  entropy T*S    EENTRO =        -0.00230423
  eigenvalues    EBANDS =        81.71454892
  atomic energy  EATOM  =      1188.62944521
  ---------------------------------------------------
  free energy    TOTEN  =       -18.45745509 eV

  energy without entropy =      -18.45515086  energy(sigma->0) =      -18.45668701


--------------------------------------------------------------------------------------------------------




----------------------------------------- Iteration    1(   4)  ---------------------------------------


     EDDAV:  cpu time    9.44: real time    9.66
       DOS:  cpu time    0.01: real time    0.01
    --------------------------------------------
      LOOP:  cpu time    9.45: real time    9.69

 eigenvalue-minimisations  :  6228
 total energy-change (2. order) :-0.1374687E-01  (-0.1374554E-01)
 number of electron      16.0000000 magnetization       2.0000000
 augmentation part       16.0000000 magnetization       2.0000000

 Free energy of the ion-electron system (eV)
  ---------------------------------------------------
  alpha Z        PSCENC =       117.38543817
  Ewald energy   TEWEN  =     -1170.06279329
  -Hartree energ DENC   =      -228.58347345
  -exchange      EXHF   =         0.00000000
  -V(xc)+E(xc)   XCENC  =         7.87006596
  PAW double counting   =      1109.45345578    -1124.86183816
  entropy T*S    EENTRO =        -0.00230601
  eigenvalues    EBANDS =        81.70080383
  atomic energy  EATOM  =      1188.62944521
  ---------------------------------------------------
  free energy    TOTEN  =       -18.47120196 eV

  energy without entropy =      -18.46889595  energy(sigma->0) =      -18.47043329


--------------------------------------------------------------------------------------------------------




----------------------------------------- Iteration    1(   5)  ---------------------------------------


     EDDAV:  cpu time    9.51: real time    9.53
       DOS:  cpu time    0.00: real time    0.00
    CHARGE:  cpu time    0.17: real time    0.17
    MIXING:  cpu time    0.04: real time    0.04
    --------------------------------------------
      LOOP:  cpu time    9.73: real time    9.75

 eigenvalue-minimisations  :  6732
 total energy-change (2. order) :-0.1127298E-03  (-0.1127295E-03)
 number of electron      16.0000012 magnetization       2.5511008
 augmentation part        7.1365476 magnetization       1.8700052

 Broyden mixing:
  rms(total) = 0.15804E+01    rms(broyden)= 0.15804E+01
  rms(prec ) = 0.37530E+01
  weight for this iteration     100.00

 Free energy of the ion-electron system (eV)
  ---------------------------------------------------
  alpha Z        PSCENC =       117.38543817
  Ewald energy   TEWEN  =     -1170.06279329
  -Hartree energ DENC   =      -228.58347345
  -exchange      EXHF   =         0.00000000
  -V(xc)+E(xc)   XCENC  =         7.87006596
  PAW double counting   =      1109.45345578    -1124.86183816
  entropy T*S    EENTRO =        -0.00230599
  eigenvalues    EBANDS =        81.70069108
  atomic energy  EATOM  =      1188.62944521
  ---------------------------------------------------
  free energy    TOTEN  =       -18.47131469 eV

  energy without entropy =      -18.46900870  energy(sigma->0) =      -18.47054603


--------------------------------------------------------------------------------------------------------




----------------------------------------- Iteration    1(   6)  ---------------------------------------


    POTLOK:  cpu time    0.19: real time    0.20
    SETDIJ:  cpu time    0.03: real time    0.03
    EDDIAG:  cpu time    1.02: real time    1.02
  RMM-DIIS:  cpu time    1.55: real time    1.55
    ORTHCH:  cpu time    0.11: real time    0.11
       DOS:  cpu time    0.01: real time    0.01
    CHARGE:  cpu time    0.12: real time    0.12
    MIXING:  cpu time    0.00: real time    0.00
    --------------------------------------------
      LOOP:  cpu time    3.03: real time    3.04

 eigenvalue-minimisations  :  5376
 total energy-change (2. order) : 0.2025995E+01  (-0.4981588E+00)
 number of electron      16.0000016 magnetization       3.7014845
 augmentation part        8.7279682 magnetization       2.9884897

 Broyden mixing:
  rms(total) = 0.10213E+01    rms(broyden)= 0.10213E+01
  rms(prec ) = 0.13789E+01
  weight for this iteration     100.00

 eigenvalues of (default mixing * dielectric matrix)
  average eigenvalue GAMMA=   0.4931
  0.4931

 Free energy of the ion-electron system (eV)
  ---------------------------------------------------
  alpha Z        PSCENC =       117.38543817
  Ewald energy   TEWEN  =     -1170.06279329
  -Hartree energ DENC   =      -192.76716371
  -exchange      EXHF   =         0.00000000
  -V(xc)+E(xc)   XCENC  =         6.63052851
  PAW double counting   =      1191.48000233    -1201.84610074
  entropy T*S    EENTRO =         0.00073923
  eigenvalues    EBANDS =        44.10458445
  atomic energy  EATOM  =      1188.62944521
  ---------------------------------------------------
  free energy    TOTEN  =       -16.44531984 eV

  energy without entropy =      -16.44605907  energy(sigma->0) =      -16.44556625


--------------------------------------------------------------------------------------------------------




----------------------------------------- Iteration    1(   7)  ---------------------------------------


    POTLOK:  cpu time    0.04: real time    0.04
    SETDIJ:  cpu time    0.03: real time    0.03
    EDDIAG:  cpu time    0.88: real time    0.89
  RMM-DIIS:  cpu time    1.54: real time    1.54
    ORTHCH:  cpu time    0.10: real time    0.10
       DOS:  cpu time    0.00: real time    0.00
    CHARGE:  cpu time    0.12: real time    0.12
    MIXING:  cpu time    0.00: real time    0.00
    --------------------------------------------
      LOOP:  cpu time    2.71: real time    2.72

 eigenvalue-minimisations  :  5376
 total energy-change (2. order) : 0.3415024E-01  (-0.2562253E-01)
 number of electron      16.0000015 magnetization       4.4444453
 augmentation part        8.2410959 magnetization       3.6472174

 Broyden mixing:
  rms(total) = 0.47355E+00    rms(broyden)= 0.47355E+00
  rms(prec ) = 0.56179E+00
  weight for this iteration     100.00

 eigenvalues of (default mixing * dielectric matrix)
  average eigenvalue GAMMA=   0.8725
  1.1562  0.5888

 Free energy of the ion-electron system (eV)
  ---------------------------------------------------
  alpha Z        PSCENC =       117.38543817
  Ewald energy   TEWEN  =     -1170.06279329
  -Hartree energ DENC   =      -200.05452134
  -exchange      EXHF   =         0.00000000
  -V(xc)+E(xc)   XCENC  =         7.90077257
  PAW double counting   =      1261.96188607    -1276.17686247
  entropy T*S    EENTRO =         0.00008428
  eigenvalues    EBANDS =        54.00538120
  atomic energy  EATOM  =      1188.62944521
  ---------------------------------------------------
  free energy    TOTEN  =       -16.41116960 eV

  energy without entropy =      -16.41125388  energy(sigma->0) =      -16.41119769


--------------------------------------------------------------------------------------------------------




----------------------------------------- Iteration    1(   8)  ---------------------------------------


    POTLOK:  cpu time    0.03: real time    0.03
    SETDIJ:  cpu time    0.02: real time    0.02
    EDDIAG:  cpu time    0.70: real time    0.70
  RMM-DIIS:  cpu time    1.55: real time    1.56
    ORTHCH:  cpu time    0.10: real time    0.10
       DOS:  cpu time    0.01: real time    0.01
    CHARGE:  cpu time    0.12: real time    0.12
    MIXING:  cpu time    0.00: real time    0.00
    --------------------------------------------
      LOOP:  cpu time    2.54: real time    2.54

 eigenvalue-minimisations  :  5376
 total energy-change (2. order) :-0.5258892E-01  (-0.2295212E-02)
 number of electron      16.0000015 magnetization       4.6892071
 augmentation part        8.3052802 magnetization       3.8812966

 Broyden mixing:
  rms(total) = 0.25308E+00    rms(broyden)= 0.25308E+00
  rms(prec ) = 0.27459E+00
  weight for this iteration     100.00

 eigenvalues of (default mixing * dielectric matrix)
  average eigenvalue GAMMA=   0.9862
  1.6673  0.6456  0.6456

 Free energy of the ion-electron system (eV)
  ---------------------------------------------------
  alpha Z        PSCENC =       117.38543817
  Ewald energy   TEWEN  =     -1170.06279329
  -Hartree energ DENC   =      -197.91236027
  -exchange      EXHF   =         0.00000000
  -V(xc)+E(xc)   XCENC  =         8.50651717
  PAW double counting   =      1316.05084891    -1331.81197119
  entropy T*S    EENTRO =         0.00066579
  eigenvalues    EBANDS =        52.75045099
  atomic energy  EATOM  =      1188.62944521
  ---------------------------------------------------
  free energy    TOTEN  =       -16.46375851 eV

  energy without entropy =      -16.46442430  energy(sigma->0) =      -16.46398044


--------------------------------------------------------------------------------------------------------




----------------------------------------- Iteration    1(   9)  ---------------------------------------


    POTLOK:  cpu time    0.04: real time    0.04
    SETDIJ:  cpu time    0.03: real time    0.03
    EDDIAG:  cpu time    1.55: real time    1.56
  RMM-DIIS:  cpu time    1.54: real time    1.55
    ORTHCH:  cpu time    0.11: real time    0.11
       DOS:  cpu time    0.00: real time    0.00
    CHARGE:  cpu time    0.13: real time    0.13
    MIXING:  cpu time    0.00: real time    0.00
    --------------------------------------------
      LOOP:  cpu time    3.41: real time    3.42

 eigenvalue-minimisations  :  5376
 total energy-change (2. order) : 0.1040661E-01  (-0.4816085E-03)
 number of electron      16.0000015 magnetization       4.4529642
 augmentation part        8.3094319 magnetization       3.6346139

 Broyden mixing:
  rms(total) = 0.12937E+00    rms(broyden)= 0.12937E+00
  rms(prec ) = 0.13713E+00
  weight for this iteration     100.00

 eigenvalues of (default mixing * dielectric matrix)
  average eigenvalue GAMMA=   1.4231
  2.8904  1.4142  0.8135  0.5742

 Free energy of the ion-electron system (eV)
  ---------------------------------------------------
  alpha Z        PSCENC =       117.38543817
  Ewald energy   TEWEN  =     -1170.06279329
  -Hartree energ DENC   =      -196.66102179
  -exchange      EXHF   =         0.00000000
  -V(xc)+E(xc)   XCENC  =         8.74301223
  PAW double counting   =      1368.90151638    -1386.08221649
  entropy T*S    EENTRO =        -0.00021369
  eigenvalues    EBANDS =        52.69348136
  atomic energy  EATOM  =      1188.62944521
  ---------------------------------------------------
  free energy    TOTEN  =       -16.45335191 eV

  energy without entropy =      -16.45313822  energy(sigma->0) =      -16.45328068


--------------------------------------------------------------------------------------------------------




----------------------------------------- Iteration    1(  10)  ---------------------------------------


    POTLOK:  cpu time    0.02: real time    0.03
    SETDIJ:  cpu time    0.02: real time    0.02
    EDDIAG:  cpu time    0.77: real time    0.78
  RMM-DIIS:  cpu time    1.56: real time    1.56
    ORTHCH:  cpu time    0.21: real time    0.21
       DOS:  cpu time    0.00: real time    0.00
    CHARGE:  cpu time    0.12: real time    0.12
    MIXING:  cpu time    0.00: real time    0.00
    --------------------------------------------
      LOOP:  cpu time    2.71: real time    2.73

 eigenvalue-minimisations  :  5376
 total energy-change (2. order) :-0.2693538E-03  (-0.4660912E-03)
 number of electron      16.0000015 magnetization       4.5212923
 augmentation part        8.2902934 magnetization       3.7092334

 Broyden mixing:
  rms(total) = 0.78954E-01    rms(broyden)= 0.78954E-01
  rms(prec ) = 0.87151E-01
  weight for this iteration     100.00

 eigenvalues of (default mixing * dielectric matrix)
  average eigenvalue GAMMA=   1.2134
  2.3826  1.3914  1.0024  0.6131  0.6775

 Free energy of the ion-electron system (eV)
  ---------------------------------------------------
  alpha Z        PSCENC =       117.38543817
  Ewald energy   TEWEN  =     -1170.06279329
  -Hartree energ DENC   =      -195.64985566
  -exchange      EXHF   =         0.00000000
  -V(xc)+E(xc)   XCENC  =         8.50334784
  PAW double counting   =      1429.55179957    -1448.04214986
  entropy T*S    EENTRO =        -0.00027321
  eigenvalues    EBANDS =        53.23141998
  atomic energy  EATOM  =      1188.62944521
  ---------------------------------------------------
  free energy    TOTEN  =       -16.45362126 eV

  energy without entropy =      -16.45334805  energy(sigma->0) =      -16.45353019


--------------------------------------------------------------------------------------------------------




----------------------------------------- Iteration    1(  11)  ---------------------------------------


    POTLOK:  cpu time    0.05: real time    0.05
    SETDIJ:  cpu time    0.02: real time    0.02
    EDDIAG:  cpu time    1.00: real time    1.00
  RMM-DIIS:  cpu time    1.55: real time    1.56
    ORTHCH:  cpu time    0.25: real time    0.25
       DOS:  cpu time    0.01: real time    0.01
    CHARGE:  cpu time    0.12: real time    0.12
    MIXING:  cpu time    0.00: real time    0.00
    --------------------------------------------
      LOOP:  cpu time    3.01: real time    3.02

 eigenvalue-minimisations  :  5376
 total energy-change (2. order) :-0.2374857E-03  (-0.1251650E-03)
 number of electron      16.0000015 magnetization       4.5275309
 augmentation part        8.3070801 magnetization       3.7144655

 Broyden mixing:
  rms(total) = 0.88651E-02    rms(broyden)= 0.88651E-02
  rms(prec ) = 0.11516E-01
  weight for this iteration     100.00

 eigenvalues of (default mixing * dielectric matrix)
  average eigenvalue GAMMA=   1.1297
  2.3401  1.2207  1.2207  0.5927  0.7019  0.7019

 Free energy of the ion-electron system (eV)
  ---------------------------------------------------
  alpha Z        PSCENC =       117.38543817
  Ewald energy   TEWEN  =     -1170.06279329
  -Hartree energ DENC   =      -195.77150223
  -exchange      EXHF   =         0.00000000
  -V(xc)+E(xc)   XCENC  =         8.53979681
  PAW double counting   =      1408.83770206    -1426.77628989
  entropy T*S    EENTRO =        -0.00035614
  eigenvalues    EBANDS =        52.76470056
  atomic energy  EATOM  =      1188.62944521
  ---------------------------------------------------
  free energy    TOTEN  =       -16.45385874 eV

  energy without entropy =      -16.45350261  energy(sigma->0) =      -16.45374003


--------------------------------------------------------------------------------------------------------




----------------------------------------- Iteration    1(  12)  ---------------------------------------


    POTLOK:  cpu time    0.03: real time    0.03
    SETDIJ:  cpu time    0.03: real time    0.03
    EDDIAG:  cpu time    0.94: real time    0.94
  RMM-DIIS:  cpu time    1.53: real time    1.54
    ORTHCH:  cpu time    0.26: real time    0.26
       DOS:  cpu time    0.01: real time    0.01
    CHARGE:  cpu time    0.12: real time    0.12
    MIXING:  cpu time    0.00: real time    0.00
    --------------------------------------------
      LOOP:  cpu time    2.94: real time    2.95

 eigenvalue-minimisations  :  5376
 total energy-change (2. order) : 0.6055747E-05  (-0.3767219E-05)
 number of electron      16.0000015 magnetization       4.5196432
 augmentation part        8.3092864 magnetization       3.7070655

 Broyden mixing:
  rms(total) = 0.28793E-02    rms(broyden)= 0.28793E-02
  rms(prec ) = 0.38741E-02
  weight for this iteration     100.00

 eigenvalues of (default mixing * dielectric matrix)
  average eigenvalue GAMMA=   1.1054
  2.3356  1.3328  1.1123  0.8561  0.8561  0.5964  0.6487

 Free energy of the ion-electron system (eV)
  ---------------------------------------------------
  alpha Z        PSCENC =       117.38543817
  Ewald energy   TEWEN  =     -1170.06279329
  -Hartree energ DENC   =      -195.74692529
  -exchange      EXHF   =         0.00000000
  -V(xc)+E(xc)   XCENC  =         8.55031534
  PAW double counting   =      1408.72837420    -1426.64975946
  entropy T*S    EENTRO =        -0.00040944
  eigenvalues    EBANDS =        52.71246187
  atomic energy  EATOM  =      1188.62944521
  ---------------------------------------------------
  free energy    TOTEN  =       -16.45385269 eV

  energy without entropy =      -16.45344325  energy(sigma->0) =      -16.45371621


--------------------------------------------------------------------------------------------------------




----------------------------------------- Iteration    1(  13)  ---------------------------------------


    POTLOK:  cpu time    0.04: real time    0.04
    SETDIJ:  cpu time    0.02: real time    0.02
    EDDIAG:  cpu time    1.58: real time    1.58
  RMM-DIIS:  cpu time    1.56: real time    1.56
    ORTHCH:  cpu time    0.30: real time    0.30
       DOS:  cpu time    0.00: real time    0.00
    CHARGE:  cpu time    0.14: real time    0.14
    MIXING:  cpu time    0.01: real time    0.01
    --------------------------------------------
      LOOP:  cpu time    3.66: real time    3.67

 eigenvalue-minimisations  :  5377
 total energy-change (2. order) :-0.1261440E-05  (-0.2356704E-06)
 number of electron      16.0000015 magnetization       4.5257630
 augmentation part        8.3101021 magnetization       3.7137332

 Broyden mixing:
  rms(total) = 0.26892E-02    rms(broyden)= 0.26892E-02
  rms(prec ) = 0.27584E-02
  weight for this iteration     100.00

 eigenvalues of (default mixing * dielectric matrix)
  average eigenvalue GAMMA=   1.2766
  2.7009  2.3065  1.3762  1.0788  0.7646  0.7646  0.5920  0.6290

 Free energy of the ion-electron system (eV)
  ---------------------------------------------------
  alpha Z        PSCENC =       117.38543817
  Ewald energy   TEWEN  =     -1170.06279329
  -Hartree energ DENC   =      -195.72842300
  -exchange      EXHF   =         0.00000000
  -V(xc)+E(xc)   XCENC  =         8.54304066
  PAW double counting   =      1409.83116559    -1427.74364833
  entropy T*S    EENTRO =        -0.00042735
  eigenvalues    EBANDS =        52.69234840
  atomic energy  EATOM  =      1188.62944521
  ---------------------------------------------------
  free energy    TOTEN  =       -16.45385395 eV

  energy without entropy =      -16.45342660  energy(sigma->0) =      -16.45371150


--------------------------------------------------------------------------------------------------------




----------------------------------------- Iteration    1(  14)  ---------------------------------------


    POTLOK:  cpu time    0.04: real time    0.04
    SETDIJ:  cpu time    0.02: real time    0.02
    EDDIAG:  cpu time    1.25: real time    1.25
  RMM-DIIS:  cpu time    1.55: real time    1.56
    ORTHCH:  cpu time    0.20: real time    0.20
       DOS:  cpu time    0.01: real time    0.01
    CHARGE:  cpu time    0.12: real time    0.12
    MIXING:  cpu time    0.00: real time    0.00
    --------------------------------------------
      LOOP:  cpu time    3.20: real time    3.21

 eigenvalue-minimisations  :  5287
 total energy-change (2. order) :-0.7330277E-06  (-0.1408986E-06)
 number of electron      16.0000015 magnetization       4.5246278
 augmentation part        8.3103141 magnetization       3.7124796

 Broyden mixing:
  rms(total) = 0.67887E-03    rms(broyden)= 0.67887E-03
  rms(prec ) = 0.97061E-03
  weight for this iteration     100.00

 eigenvalues of (default mixing * dielectric matrix)
  average eigenvalue GAMMA=   1.2219
  2.7630  2.3404  1.2302  1.2302  0.7742  0.7742  0.5935  0.6458  0.6458

 Free energy of the ion-electron system (eV)
  ---------------------------------------------------
  alpha Z        PSCENC =       117.38543817
  Ewald energy   TEWEN  =     -1170.06279329
  -Hartree energ DENC   =      -195.72750444
  -exchange      EXHF   =         0.00000000
  -V(xc)+E(xc)   XCENC  =         8.54968102
  PAW double counting   =      1410.27759199    -1428.19016060
  entropy T*S    EENTRO =        -0.00043611
  eigenvalues    EBANDS =        52.68488337
  atomic energy  EATOM  =      1188.62944521
  ---------------------------------------------------
  free energy    TOTEN  =       -16.45385468 eV

  energy without entropy =      -16.45341858  energy(sigma->0) =      -16.45370931


--------------------------------------------------------------------------------------------------------




----------------------------------------- Iteration    1(  15)  ---------------------------------------


    POTLOK:  cpu time    0.04: real time    0.04
    SETDIJ:  cpu time    0.03: real time    0.03
    EDDIAG:  cpu time    1.00: real time    1.00
  RMM-DIIS:  cpu time    1.38: real time    1.38
    ORTHCH:  cpu time    0.53: real time    0.54
       DOS:  cpu time    0.01: real time    0.01
    CHARGE:  cpu time    0.13: real time    0.13
    MIXING:  cpu time    0.00: real time    0.00
    --------------------------------------------
      LOOP:  cpu time    3.12: real time    3.13

 eigenvalue-minimisations  :  4619
 total energy-change (2. order) : 0.2887023E-06  (-0.1894356E-07)
 number of electron      16.0000015 magnetization       4.5255262
 augmentation part        8.3100358 magnetization       3.7132606

 Broyden mixing:
  rms(total) = 0.31155E-03    rms(broyden)= 0.31155E-03
  rms(prec ) = 0.31614E-03
  weight for this iteration     100.00

 eigenvalues of (default mixing * dielectric matrix)
  average eigenvalue GAMMA=   1.2210
  2.6573  2.3356  1.4357  1.1514  1.1514  0.7875  0.7875  0.6859  0.5910  0.6266

 Free energy of the ion-electron system (eV)
  ---------------------------------------------------
  alpha Z        PSCENC =       117.38543817
  Ewald energy   TEWEN  =     -1170.06279329
  -Hartree energ DENC   =      -195.73331542
  -exchange      EXHF   =         0.00000000
  -V(xc)+E(xc)   XCENC  =         8.54815976
  PAW double counting   =      1410.22270270    -1428.13431514
  entropy T*S    EENTRO =        -0.00043045
  eigenvalues    EBANDS =        52.69125407
  atomic energy  EATOM  =      1188.62944521
  ---------------------------------------------------
  free energy    TOTEN  =       -16.45385439 eV

  energy without entropy =      -16.45342394  energy(sigma->0) =      -16.45371091


--------------------------------------------------------------------------------------------------------




----------------------------------------- Iteration    1(  16)  ---------------------------------------


    POTLOK:  cpu time    0.08: real time    0.08
    SETDIJ:  cpu time    0.04: real time    0.04
    EDDIAG:  cpu time    1.00: real time    1.00
  RMM-DIIS:  cpu time    1.27: real time    1.28
    ORTHCH:  cpu time    0.35: real time    0.35
       DOS:  cpu time    0.03: real time    0.03
    --------------------------------------------
      LOOP:  cpu time    2.77: real time    2.78

 eigenvalue-minimisations  :  3854
 total energy-change (2. order) : 0.6096002E-07  (-0.1283757E-08)
 number of electron      16.0000015 magnetization       4.5255262
 augmentation part        8.3100358 magnetization       3.7132606

 Free energy of the ion-electron system (eV)
  ---------------------------------------------------
  alpha Z        PSCENC =       117.38543817
  Ewald energy   TEWEN  =     -1170.06279329
  -Hartree energ DENC   =      -195.73331877
  -exchange      EXHF   =         0.00000000
  -V(xc)+E(xc)   XCENC  =         8.54911717
  PAW double counting   =      1410.17634573    -1428.08800749
  entropy T*S    EENTRO =        -0.00043187
  eigenvalues    EBANDS =        52.69035081
  atomic energy  EATOM  =      1188.62944521
  ---------------------------------------------------
  free energy    TOTEN  =       -16.45385433 eV

  energy without entropy =      -16.45342247  energy(sigma->0) =      -16.45371038


--------------------------------------------------------------------------------------------------------




 average (electrostatic) potential at core
  the test charge radii are     1.0103
  (the norm of the test charge is              1.0000)
       1 -43.6375       2 -43.6375
 
 
 
 E-fermi :   5.4046     XC(G=0): -12.9130     alpha+bet :-13.1633


 spin component 1

 k-point     1 :       0.0000    0.0000    0.0000
  band No.  band energies     occupation 
      1      -2.7652      1.00000
      2       0.8279      1.00000
      3       0.8279      1.00000
      4       3.1959      1.00000
      5       3.1959      1.00000
      6       3.1959      1.00000
      7       4.3844      1.00000
      8       4.3844      1.00000
      9       5.4812      0.01925
     10       5.4812      0.01925
     11       5.4812      0.01925
     12      15.1423      0.00000
     13      15.1423      0.00000
     14      15.1423      0.00000
     15      20.7579      0.00000
     16      20.7579      0.00000
     17      25.4224      0.00000
     18      30.1291      0.00000
     19      30.1291      0.00000
     20      30.1291      0.00000
     21      34.9913      0.00000
     22      34.9913      0.00000
     23      37.2107      0.00000
     24      37.2579      0.00000

 k-point     2 :       0.0909    0.0000    0.0000
  band No.  band energies     occupation 
      1      -2.5986      1.00000
      2       0.8976      1.00000
      3       0.8987      1.00000
      4       3.1952      1.00000
      5       3.1952      1.00000
      6       3.2404      1.00000
      7       4.3126      1.00000
      8       4.4127      1.00000
      9       5.3478      0.90508
     10       5.3478      0.90508
     11       5.4332      0.26872
     12      14.0031      0.00000
     13      15.4519      0.00000
     14      15.4519      0.00000
     15      20.8088      0.00000
     16      21.5722      0.00000
     17      26.0021      0.00000
     18      29.0607      0.00000
     19      29.9353      0.00000
     20      29.9353      0.00000
     21      33.4903      0.00000
     22      35.1741      0.00000
     23      35.1741      0.00000
     24      36.4447      0.00000

 k-point     3 :       0.1818    0.0000    0.0000
  band No.  band energies     occupation 
      1      -2.1109      1.00000
      2       1.0859      1.00000
      3       1.1020      1.00000
      4       3.2013      1.00000
      5       3.2013      1.00000
      6       3.3706      1.00000
      7       4.1022      1.00000
      8       4.4944      1.00000
      9       5.0038      1.00000
     10       5.0038      1.00000
     11       5.2935      1.03316
     12      11.8274      0.00000
     13      16.3215      0.00000
     14      16.3215      0.00000
     15      20.9668      0.00000
     16      22.5608      0.00000
     17      27.2653      0.00000
     18      27.9852      0.00000
     19      29.0121      0.00000
     20      29.0121      0.00000
     21      31.2088      0.00000
     22      34.3214      0.00000
     23      34.3214      0.00000
     24      37.2786      0.00000

 k-point     4 :       0.2727    0.0000    0.0000
  band No.  band energies     occupation 
      1      -1.3433      1.00000
      2       1.3105      1.00000
      3       1.4270      1.00000
      4       3.2358      1.00000
      5       3.2358      1.00000
      6       3.5773      1.00000
      7       3.7686      1.00000
      8       4.5651      1.00000
      9       4.5651      1.00000
     10       4.6272      1.00000
     11       5.0744      1.00002
     12       9.5922      0.00000
     13      17.6254      0.00000
     14      17.6254      0.00000
     15      21.2476      0.00000
     16      23.1173      0.00000
     17      25.6030      0.00000
     18      27.2641      0.00000
     19      27.2641      0.00000
     20      28.9985      0.00000
     21      31.0961      0.00000
     22      34.7692      0.00000
     23      34.7692      0.00000
     24      37.5529      0.00000

 k-point     5 :       0.3636    0.0000    0.0000
  band No.  band energies     occupation 
      1      -0.3870      1.00000
      2       1.4284      1.00000
      3       1.8488      1.00000
      4       3.3266      1.00000
      5       3.3266      1.00000
      6       3.3377      1.00000
      7       3.8451      1.00000
      8       4.1329      1.00000
      9       4.1329      1.00000
     10       4.7950      1.00000
     11       4.8398      1.00000
     12       7.6206     -0.00000
     13      19.2453      0.00000
     14      19.2453      0.00000
     15      21.6769      0.00000
     16      23.6408      0.00000
     17      24.2192      0.00000
     18      25.1959      0.00000
     19      25.1959      0.00000
     20      27.0671      0.00000
     21      34.7683      0.00000
     22      36.0013      0.00000
     23      36.0013      0.00000
     24      37.9638      0.00000

 k-point     6 :       0.4545    0.0000    0.0000
  band No.  band energies     occupation 
      1       0.5699      1.00000
      2       1.2295      1.00000
      3       2.3350      1.00000
      4       2.8458      1.00000
      5       3.4991      1.00000
      6       3.4991      1.00000
      7       3.7685      1.00000
      8       3.7685      1.00000
      9       4.1539      1.00000
     10       4.4793      1.00000
     11       5.2568      1.02860
     12       6.1324     -0.00000
     13      21.0928      0.00000
     14      21.0928      0.00000
     15      22.2890      0.00000
     16      23.0997      0.00000
     17      23.0997      0.00000
     18      23.1235      0.00000
     19      24.3967      0.00000
     20      25.5224      0.00000
     21      37.6957      0.00000
     22      37.6959      0.00000
     23      38.5374      0.00000
     24      38.7068      0.00000

 k-point     7 :       0.0909    0.0909    0.0000
  band No.  band energies     occupation 
      1      -2.4343      1.00000
      2       0.9623      1.00000
      3       0.9723      1.00000
      4       3.1098      1.00000
      5       3.1871      1.00000
      6       3.3687      1.00000
      7       4.3039      1.00000
      8       4.3917      1.00000
      9       5.1150      1.00016
     10       5.2150      1.01103
     11       5.5012     -0.02115
     12      14.0468      0.00000
     13      14.5244      0.00000
     14      15.7454      0.00000
     15      21.2215      0.00000
     16      22.1689      0.00000
     17      26.4880      0.00000
     18      28.0459      0.00000
     19      29.5640      0.00000
     20      29.8611      0.00000
     21      33.9311      0.00000
     22      34.0282      0.00000
     23      34.3244      0.00000
     24      36.3426      0.00000

 k-point     8 :       0.1818    0.0909    0.0000
  band No.  band energies     occupation 
      1      -1.9544      1.00000
      2       1.1422      1.00000
      3       1.1759      1.00000
      4       3.0478      1.00000
      5       3.1716      1.00000
      6       3.5639      1.00000
      7       4.1461      1.00000
      8       4.4607      1.00000
      9       4.7204      1.00000
     10       4.8780      1.00000
     11       5.4508      0.15136
     12      12.0270      0.00000
     13      15.1224      0.00000
     14      16.5773      0.00000
     15      21.4933      0.00000
     16      23.3448      0.00000
     17      26.1379      0.00000
     18      28.2693      0.00000
     19      28.5692      0.00000
     20      29.1529      0.00000
     21      32.6715      0.00000
     22      32.9064      0.00000
     23      33.7264      0.00000
     24      38.6078      0.00000

 k-point     9 :       0.2727    0.0909    0.0000
  band No.  band energies     occupation 
      1      -1.2031      1.00000
      2       1.3663      1.00000
      3       1.4826      1.00000
      4       3.0384      1.00000
      5       3.1577      1.00000
      6       3.8086      1.00000
      7       3.8886      1.00000
      8       4.2742      1.00000
      9       4.4652      1.00000
     10       4.5966      1.00000
     11       5.2829      1.03545
     12       9.7801      0.00000
     13      16.2518      0.00000
     14      17.8395      0.00000
     15      21.8283      0.00000
     16      24.1116      0.00000
     17      24.2280      0.00000
     18      26.9976      0.00000
     19      27.4259      0.00000
     20      30.6829      0.00000
     21      31.2574      0.00000
     22      33.2008      0.00000
     23      34.1886      0.00000
     24      39.1973      0.00000

 k-point    10 :       0.3636    0.0909    0.0000
  band No.  band energies     occupation 
      1      -0.2762      1.00000
      2       1.4754      1.00000
      3       1.8768      1.00000
      4       3.0730      1.00000
      5       3.0998      1.00000
      6       3.6718      1.00000
      7       3.8515      1.00000
      8       4.0958      1.00000
      9       4.0961      1.00000
     10       4.8156      1.00000
     11       5.0324      1.00000
     12       7.7766     -0.00000
     13      17.6193      0.00000
     14      19.4240      0.00000
     15      22.3243      0.00000
     16      22.4349      0.00000
     17      24.8388      0.00000
     18      25.3379      0.00000
     19      25.3936      0.00000
     20      28.7762      0.00000
     21      34.1872      0.00000
     22      34.8287      0.00000
     23      35.3160      0.00000
     24      38.3853      0.00000

 k-point    11 :       0.4545    0.0909    0.0000
  band No.  band energies     occupation 
      1       0.6377      1.00000
      2       1.2696      1.00000
      3       2.3223      1.00000
      4       2.7605      1.00000
      5       3.2507      1.00000
      6       3.5023      1.00000
      7       3.6850      1.00000
      8       3.8396      1.00000
      9       4.4107      1.00000
     10       4.7317      1.00000
     11       5.2680      1.03293
     12       6.2224     -0.00000
     13      19.1318      0.00000
     14      20.7413      0.00000
     15      21.2461      0.00000
     16      23.0435      0.00000
     17      23.2396      0.00000
     18      24.0536      0.00000
     19      25.8091      0.00000
     20      27.1243      0.00000
     21      35.4689      0.00000
     22      36.8109      0.00000
     23      36.8890      0.00000
     24      37.9504      0.00000

 k-point    12 :       0.1818    0.1818    0.0000
  band No.  band energies     occupation 
      1      -1.5014      1.00000
      2       1.2682      1.00000
      3       1.4054      1.00000
      4       2.8835      1.00000
      5       3.1153      1.00000
      6       3.8518      1.00000
      7       4.1984      1.00000
      8       4.2676      1.00000
      9       4.4166      1.00000
     10       4.5746      1.00000
     11       5.5549     -0.02753
     12      12.0229      0.00000
     13      13.5551      0.00000
     14      17.3165      0.00000
     15      21.8518      0.00000
     16      24.0712      0.00000
     17      25.1594      0.00000
     18      27.8151      0.00000
     19      29.3383      0.00000
     20      29.4088      0.00000
     21      30.9361      0.00000
     22      32.8391      0.00000
     23      34.4941      0.00000
     24      38.0487      0.00000

 k-point    13 :       0.2727    0.1818    0.0000
  band No.  band energies     occupation 
      1      -0.8078      1.00000
      2       1.4145      1.00000
      3       1.7319      1.00000
      4       2.7844      1.00000
      5       3.0735      1.00000
      6       3.8043      1.00000
      7       4.1023      1.00000
      8       4.1670      1.00000
      9       4.2493      1.00000
     10       4.5165      1.00000
     11       5.5187     -0.03424
     12      10.1703      0.00000
     13      14.1220      0.00000
     14      18.4692      0.00000
     15      21.9934      0.00000
     16      22.1532      0.00000
     17      26.5385      0.00000
     18      26.6040      0.00000
     19      27.8967      0.00000
     20      30.8656      0.00000
     21      31.8232      0.00000
     22      32.4254      0.00000
     23      34.2136      0.00000
     24      37.8515      0.00000

 k-point    14 :       0.3636    0.1818    0.0000
  band No.  band energies     occupation 
      1       0.0093      1.00000
      2       1.4604      1.00000
      3       2.0997      1.00000
      4       2.7731      1.00000
      5       3.0069      1.00000
      6       3.3936      1.00000
      7       4.0091      1.00000
      8       4.0423      1.00000
      9       4.4954      1.00000
     10       4.7430      1.00000
     11       5.3624      0.82465
     12       8.1431      0.00000
     13      15.3080      0.00000
     14      19.9544      0.00000
     15      20.0592      0.00000
     16      22.5771      0.00000
     17      25.2668      0.00000
     18      25.7441      0.00000
     19      27.5750      0.00000
     20      31.3837      0.00000
     21      31.8432      0.00000
     22      34.3844      0.00000
     23      34.9140      0.00000
     24      36.1189      0.00000

 k-point    15 :       0.4545    0.1818    0.0000
  band No.  band energies     occupation 
      1       0.7595      1.00000
      2       1.2623      1.00000
      3       2.4723      1.00000
      4       2.8021      1.00000
      5       2.8668      1.00000
      6       3.0747      1.00000
      7       3.9941      1.00000
      8       4.0040      1.00000
      9       4.8202      1.00000
     10       5.1186      1.00020
     11       5.2996      1.02956
     12       6.4526     -0.00000
     13      16.7131      0.00000
     14      18.2976      0.00000
     15      21.7000      0.00000
     16      23.2065      0.00000
     17      23.6477      0.00000
     18      24.1004      0.00000
     19      28.6784      0.00000
[...]
  RMM-DIIS:  cpu time    1.27: real time    1.28
    ORTHCH:  cpu time    0.13: real time    0.13
       DOS:  cpu time    0.02: real time    0.02
    --------------------------------------------
      LOOP:  cpu time    2.47: real time    2.48

 eigenvalue-minimisations  :  3949
 total energy-change (2. order) : 0.6810842E-07  (-0.3378860E-08)
 number of electron      16.0000037 magnetization       4.4062866
 augmentation part        8.2977375 magnetization       3.6104951

  free energy =  -0.164713551853E+02  energy without entropy=  -0.164717085497E+02


--------------------------------------------------------------------------------------------------------




------------------------ aborting loop because EDIFF is reached ----------------------------------------


 


 total charge     
 
# of ion     s       p       d       tot
----------------------------------------
  1        0.490   0.542   6.245   7.277
  2        0.490   0.542   6.245   7.277
------------------------------------------------
tot        0.980   1.084  12.491  14.555
 


 magnetization (x)
 
# of ion     s       p       d       tot
----------------------------------------
  1       -0.012  -0.050   2.258   2.196
  2       -0.012  -0.050   2.258   2.196
------------------------------------------------
tot       -0.024  -0.100   4.517   4.393
 
    CHARGE:  cpu time    0.15: real time    0.15
    FORLOC:  cpu time    0.00: real time    0.00
    FORNL :  cpu time    0.94: real time    0.94
    STRESS:  cpu time    2.75: real time    2.75
    FORCOR:  cpu time    0.05: real time    0.05
    FORHAR:  cpu time    0.00: real time    0.00
    MIXING:  cpu time    0.00: real time    0.00
    OFIELD:  cpu time    0.00: real time    0.00

  Number of pair interactions contributing to vdW energy:   35256
  Edisp (eV):   -0.34803
    FORVDW:  cpu time    0.01: real time    0.01

  FORCE on cell =-STRESS in cart. coord.  units (eV):
  Direction    XX          YY          ZZ          XY          YZ          ZX
  --------------------------------------------------------------------------------------
  Alpha Z   122.11731   122.11731   122.11731
  Ewald    -395.19267  -395.19267  -395.19267     0.00000     0.00000     0.00000
  Hartree    63.20819    63.20819    63.20819    -0.00000    -0.00000    -0.00000
  E(xc)     -79.48754   -79.48754   -79.48754     0.00000     0.00000     0.00000
  Local     118.13820   118.13820   118.13820    -0.00000     0.00000     0.00000
  n-local   -54.78575   -51.82072   -49.04461     2.50763    -0.82808     0.66712
  augment    77.38381    77.38381    77.38381     0.00000    -0.00000     0.00000
  Kinetic   148.34068   145.34963   143.67875     2.95518    -0.45126     0.17354
  Fock        0.00000     0.00000     0.00000     0.00000     0.00000     0.00000
  vdW         0.00384     0.00384     0.00384    -0.00000     0.00000     0.00000
  -------------------------------------------------------------------------------------
  Total       0.07713     0.07713     0.07713     0.00000     0.00000    -0.00000
  in kB       5.45894     5.45894     5.45894     0.00000     0.00000    -0.00000
  external pressure =        5.46 kB  Pullay stress =        0.00 kB



--------------------------------------------------------------------------------------------------------



  FREE ENERGIE OF THE ION-ELECTRON SYSTEM (eV)
  ---------------------------------------------------
  free  energy   TOTEN  =       -16.81938605 eV

  energy  without entropy=      -16.81973941  energy(sigma->0) =      -16.81950384
 
 d Force = 0.0000000E+00[ 0.000E+00, 0.000E+00]  d Energy = 0.7365042E-02-0.737E-02
 d Force = 0.0000000E+00[ 0.000E+00, 0.000E+00]  d Ewald  = 0.1044175E+02-0.104E+02


--------------------------------------------------------------------------------------------------------


    POTLOK:  cpu time    0.08: real time    0.08


--------------------------------------------------------------------------------------------------------


 Quasi-Newton relaxation of ions (Broydens 2nd method)
  g(Force)  = 0.397E-57   g(Stress)= 0.861E-04

 retain information from N=  1 steps
 eigenvalues of (default step * inverse Hessian matrix)
  average eigenvalue of G=   2.6897
 eigenvalue spectrum of G is  2.6897


--------------------------------------------------------------------------------------------------------


    WAVPRE:  cpu time    0.01: real time    0.01
 FEWALD executed in parallel
    FEWALD:  cpu time    0.01: real time    0.01
    GENKIN:  cpu time    0.01: real time    0.01
    ORTHCH:  cpu time    0.51: real time    0.51
     LOOP+:  cpu time   37.15: real time   37.27


----------------------------------------- Iteration    4(   1)  ---------------------------------------


    POTLOK:  cpu time    0.04: real time    0.04
    SETDIJ:  cpu time    0.02: real time    0.02
     EDDAV:  cpu time    8.73: real time    8.75
       DOS:  cpu time    0.01: real time    0.01
    CHARGE:  cpu time    0.13: real time    0.13
    MIXING:  cpu time    0.00: real time    0.00
    --------------------------------------------
      LOOP:  cpu time    8.93: real time    8.96

 eigenvalue-minimisations  :  6336
 total energy-change (2. order) :-0.1573877E-02  (-0.1541316E-02)
 number of electron      16.0000037 magnetization       4.4179513
 augmentation part        8.3251924 magnetization       3.6238368

  free energy =  -0.164729291308E+02  energy without entropy=  -0.164731046122E+02


--------------------------------------------------------------------------------------------------------




----------------------------------------- Iteration    4(   2)  ---------------------------------------


    POTLOK:  cpu time    0.03: real time    0.03
    SETDIJ:  cpu time    0.03: real time    0.03
    EDDIAG:  cpu time    1.14: real time    1.14
  RMM-DIIS:  cpu time    1.56: real time    1.56
    ORTHCH:  cpu time    0.10: real time    0.10
       DOS:  cpu time    0.00: real time    0.00
    CHARGE:  cpu time    0.12: real time    0.12
    MIXING:  cpu time    0.00: real time    0.00
    --------------------------------------------
      LOOP:  cpu time    2.99: real time    3.00

 eigenvalue-minimisations  :  5376
 total energy-change (2. order) : 0.1324796E-02  (-0.1761077E-03)
 number of electron      16.0000037 magnetization       4.4134349
 augmentation part        8.2896369 magnetization       3.6174967

 eigenvalues of (default mixing * dielectric matrix)
  average eigenvalue GAMMA=   0.4204
  0.4204

  free energy =  -0.164716043348E+02  energy without entropy=  -0.164720247661E+02


--------------------------------------------------------------------------------------------------------




----------------------------------------- Iteration    4(   3)  ---------------------------------------


    POTLOK:  cpu time    0.03: real time    0.03
    SETDIJ:  cpu time    0.03: real time    0.03
    EDDIAG:  cpu time    1.36: real time    1.36
  RMM-DIIS:  cpu time    1.58: real time    1.59
    ORTHCH:  cpu time    0.10: real time    0.11
       DOS:  cpu time    0.02: real time    0.02
    CHARGE:  cpu time    0.12: real time    0.12
    MIXING:  cpu time    0.00: real time    0.00
    --------------------------------------------
      LOOP:  cpu time    3.25: real time    3.26

 eigenvalue-minimisations  :  5376
 total energy-change (2. order) : 0.1218312E-03  (-0.9506159E-05)
 number of electron      16.0000037 magnetization       4.4130021
 augmentation part        8.2988694 magnetization       3.6164635

 eigenvalues of (default mixing * dielectric matrix)
  average eigenvalue GAMMA=   0.7071
  0.8303  0.5840

  free energy =  -0.164714825036E+02  energy without entropy=  -0.164718743939E+02


--------------------------------------------------------------------------------------------------------




----------------------------------------- Iteration    4(   4)  ---------------------------------------


    POTLOK:  cpu time    0.10: real time    0.10
    SETDIJ:  cpu time    0.04: real time    0.04
    EDDIAG:  cpu time    0.89: real time    0.89
  RMM-DIIS:  cpu time    1.58: real time    1.59
    ORTHCH:  cpu time    0.14: real time    0.14
       DOS:  cpu time    0.00: real time    0.00
    CHARGE:  cpu time    0.12: real time    0.12
    MIXING:  cpu time    0.00: real time    0.00
    --------------------------------------------
      LOOP:  cpu time    2.88: real time    2.89

 eigenvalue-minimisations  :  5376
 total energy-change (2. order) : 0.1679207E-04  (-0.8644265E-06)
 number of electron      16.0000037 magnetization       4.4125224
 augmentation part        8.2992303 magnetization       3.6158695

 eigenvalues of (default mixing * dielectric matrix)
  average eigenvalue GAMMA=   1.1338
  2.0581  0.6716  0.6716

  free energy =  -0.164714657115E+02  energy without entropy=  -0.164718695901E+02


--------------------------------------------------------------------------------------------------------




----------------------------------------- Iteration    4(   5)  ---------------------------------------


    POTLOK:  cpu time    0.03: real time    0.04
    SETDIJ:  cpu time    0.03: real time    0.03
    EDDIAG:  cpu time    0.85: real time    0.86
  RMM-DIIS:  cpu time    1.56: real time    1.56
    ORTHCH:  cpu time    0.09: real time    0.09
       DOS:  cpu time    0.01: real time    0.01
    CHARGE:  cpu time    0.12: real time    0.12
    MIXING:  cpu time    0.00: real time    0.00
    --------------------------------------------
      LOOP:  cpu time    2.70: real time    2.71

 eigenvalue-minimisations  :  5376
 total energy-change (2. order) : 0.1317153E-04  (-0.6814317E-06)
 number of electron      16.0000037 magnetization       4.4125612
 augmentation part        8.2985322 magnetization       3.6158381

 eigenvalues of (default mixing * dielectric matrix)
  average eigenvalue GAMMA=   1.1349
  2.2955  0.8197  0.8197  0.6048

  free energy =  -0.164714525400E+02  energy without entropy=  -0.164718704812E+02


--------------------------------------------------------------------------------------------------------




----------------------------------------- Iteration    4(   6)  ---------------------------------------


    POTLOK:  cpu time    0.03: real time    0.03
    SETDIJ:  cpu time    0.02: real time    0.02
    EDDIAG:  cpu time    0.88: real time    0.88
  RMM-DIIS:  cpu time    1.54: real time    1.54
    ORTHCH:  cpu time    0.17: real time    0.17
       DOS:  cpu time    0.01: real time    0.02
    CHARGE:  cpu time    0.15: real time    0.15
    MIXING:  cpu time    0.00: real time    0.00
    --------------------------------------------
      LOOP:  cpu time    2.82: real time    2.82

 eigenvalue-minimisations  :  4996
 total energy-change (2. order) :-0.4722494E-06  (-0.3811290E-07)
 number of electron      16.0000037 magnetization       4.4124761
 augmentation part        8.2985514 magnetization       3.6157814

 eigenvalues of (default mixing * dielectric matrix)
  average eigenvalue GAMMA=   1.1030
  2.3482  0.9174  0.9174  0.6204  0.7118

  free energy =  -0.164714530123E+02  energy without entropy=  -0.164718699519E+02


--------------------------------------------------------------------------------------------------------




----------------------------------------- Iteration    4(   7)  ---------------------------------------


    POTLOK:  cpu time    0.04: real time    0.04
    SETDIJ:  cpu time    0.03: real time    0.03
    EDDIAG:  cpu time    0.87: real time    0.88
  RMM-DIIS:  cpu time    1.29: real time    1.30
    ORTHCH:  cpu time    0.31: real time    0.31
       DOS:  cpu time    0.01: real time    0.01
    CHARGE:  cpu time    0.13: real time    0.13
    MIXING:  cpu time    0.00: real time    0.00
    --------------------------------------------
      LOOP:  cpu time    2.69: real time    2.69

 eigenvalue-minimisations  :  3919
 total energy-change (2. order) :-0.2937693E-06  (-0.3797043E-08)
 number of electron      16.0000037 magnetization       4.4125361
 augmentation part        8.2985618 magnetization       3.6158442

 eigenvalues of (default mixing * dielectric matrix)
  average eigenvalue GAMMA=   1.3369
  2.5142  2.4354  0.9974  0.6142  0.7603  0.6999

  free energy =  -0.164714533060E+02  energy without entropy=  -0.164718712141E+02


--------------------------------------------------------------------------------------------------------




----------------------------------------- Iteration    4(   8)  ---------------------------------------


    POTLOK:  cpu time    0.05: real time    0.05
    SETDIJ:  cpu time    0.02: real time    0.02
    EDDIAG:  cpu time    0.89: real time    0.89
  RMM-DIIS:  cpu time    1.24: real time    1.24
    ORTHCH:  cpu time    0.11: real time    0.12
       DOS:  cpu time    0.00: real time    0.00
    CHARGE:  cpu time    0.12: real time    0.12
    MIXING:  cpu time    0.00: real time    0.00
    --------------------------------------------
      LOOP:  cpu time    2.43: real time    2.44

 eigenvalue-minimisations  :  3817
 total energy-change (2. order) :-0.2457377E-06  (-0.9671448E-09)
 number of electron      16.0000037 magnetization       4.4125136
 augmentation part        8.2985761 magnetization       3.6158146

 eigenvalues of (default mixing * dielectric matrix)
  average eigenvalue GAMMA=   1.2620
  2.6687  2.2638  1.0839  0.8203  0.6096  0.6939  0.6939

  free energy =  -0.164714535518E+02  energy without entropy=  -0.164718710457E+02


--------------------------------------------------------------------------------------------------------




----------------------------------------- Iteration    4(   9)  ---------------------------------------


    POTLOK:  cpu time    0.03: real time    0.03
    SETDIJ:  cpu time    0.03: real time    0.03
    EDDIAG:  cpu time    0.86: real time    0.87
  RMM-DIIS:  cpu time    1.12: real time    1.12
    ORTHCH:  cpu time    0.59: real time    0.59
       DOS:  cpu time    0.02: real time    0.02
    --------------------------------------------
      LOOP:  cpu time    2.66: real time    2.66

 eigenvalue-minimisations  :  2923
 total energy-change (2. order) : 0.1624107E-07  (-0.1059574E-09)
 number of electron      16.0000037 magnetization       4.4125136
 augmentation part        8.2985761 magnetization       3.6158146

  free energy =  -0.164714535355E+02  energy without entropy=  -0.164718711233E+02


--------------------------------------------------------------------------------------------------------




------------------------ aborting loop because EDIFF is reached ----------------------------------------


 


 total charge     
 
# of ion     s       p       d       tot
----------------------------------------
  1        0.489   0.539   6.243   7.271
  2        0.489   0.539   6.243   7.271
------------------------------------------------
tot        0.978   1.078  12.486  14.542
 


 magnetization (x)
 
# of ion     s       p       d       tot
----------------------------------------
  1       -0.012  -0.050   2.262   2.200
  2       -0.012  -0.050   2.262   2.200
------------------------------------------------
tot       -0.024  -0.100   4.525   4.400
 
    CHARGE:  cpu time    0.13: real time    0.13
    FORLOC:  cpu time    0.00: real time    0.00
    FORNL :  cpu time    0.91: real time    0.91
    STRESS:  cpu time    2.72: real time    2.73
    FORCOR:  cpu time    0.04: real time    0.04
    FORHAR:  cpu time    0.00: real time    0.00
    MIXING:  cpu time    0.01: real time    0.01
    OFIELD:  cpu time    0.00: real time    0.00

  Number of pair interactions contributing to vdW energy:   35256
  Edisp (eV):   -0.34804
    FORVDW:  cpu time    0.01: real time    0.01

  FORCE on cell =-STRESS in cart. coord.  units (eV):
  Direction    XX          YY          ZZ          XY          YZ          ZX
  --------------------------------------------------------------------------------------
  Alpha Z   121.75137   121.75137   121.75137
  Ewald    -394.79753  -394.79753  -394.79753     0.00000     0.00000     0.00000
  Hartree    63.36127    63.36127    63.36127    -0.00000    -0.00000    -0.00000
  E(xc)     -79.46753   -79.46753   -79.46753    -0.00000    -0.00000    -0.00000
  Local     117.97273   117.97273   117.97273    -0.00000    -0.00000    -0.00000
  n-local   -54.82645   -51.87025   -49.10056     2.50991    -0.82315     0.67152
  augment    77.39447    77.39447    77.39447     0.00000     0.00000     0.00000
  Kinetic   148.27047   145.27252   143.59955     2.93134    -0.45447     0.16490
  Fock        0.00000     0.00000     0.00000     0.00000     0.00000     0.00000
  vdW         0.00402     0.00402     0.00402    -0.00000    -0.00000    -0.00000
  -------------------------------------------------------------------------------------
  Total       0.00055     0.00055     0.00055    -0.00000     0.00000     0.00000
  in kB       0.03888     0.03888     0.03888    -0.00000     0.00000     0.00000
  external pressure =        0.04 kB  Pullay stress =        0.00 kB



--------------------------------------------------------------------------------------------------------



  FREE ENERGIE OF THE ION-ELECTRON SYSTEM (eV)
  ---------------------------------------------------
  free  energy   TOTEN  =       -16.81949621 eV

  energy  without entropy=      -16.81991379  energy(sigma->0) =      -16.81963540
 
 d Force = 0.0000000E+00[ 0.000E+00, 0.000E+00]  d Energy = 0.1101568E-03-0.110E-03
 d Force = 0.0000000E+00[ 0.000E+00, 0.000E+00]  d Ewald  =-0.1185432E+01 0.119E+01


--------------------------------------------------------------------------------------------------------


    POTLOK:  cpu time    0.16: real time    0.16


--------------------------------------------------------------------------------------------------------


 Quasi-Newton relaxation of ions (Broydens 2nd method)
  g(Force)  = 0.717E-57   g(Stress)= 0.439E-08

 retain information from N=  1 steps
 eigenvalues of (default step * inverse Hessian matrix)
  average eigenvalue of G=   2.7091
 eigenvalue spectrum of G is  2.7091


--------------------------------------------------------------------------------------------------------


  
 reached required accuracy - stopping structural energy minimisation
 writing wavefunctions
     LOOP+:  cpu time   36.30: real time   37.42
    4ORBIT:  cpu time    0.00: real time    0.00
 


 total charge     
 
# of ion     s       p       d       tot
----------------------------------------
  1        0.489   0.539   6.243   7.271
  2        0.489   0.539   6.243   7.271
------------------------------------------------
tot        0.978   1.078  12.486  14.542
 


 magnetization (x)
 
# of ion     s       p       d       tot
----------------------------------------
  1       -0.012  -0.050   2.262   2.200
  2       -0.012  -0.050   2.262   2.200
------------------------------------------------
tot       -0.024  -0.100   4.525   4.400
 

 total amount of memory used by VASP on root node    36392. kBytes
========================================================================

   base      :      30000. kBytes
   nonlr-proj:       1122. kBytes
   fftplans  :        250. kBytes
   grid      :       1131. kBytes
   one-center:         62. kBytes
   wavefun   :       3827. kBytes
 
  
  
 General timing and accounting informations for this job:
 ========================================================
  
                  Total CPU time used (sec):      191.297
                            User time (sec):      190.502
                          System time (sec):        0.795
                         Elapsed time (sec):      193.686
  
                   Maximum memory used (kb):       44316.
                   Average memory used (kb):           0.
  
                          Minor page faults:       165355
                          Major page faults:            7
                 Voluntary context switches:         1851
